                         Program Version 5.0.4 -  RELEASE  -
|  1> !PBE0 nososcf NoRI
|  2> %SCF Guess HCore
|  3>      DIISMaxIt -1
|  4> end
|  5> %TDDFT NROOTS 10
|  6>        DOSOC TRUE
|  7> end
|  8> %basis
|  9>         GTOName "../../../basis_orca"
| 10> end
| 11> * xyz 0 1
| 12>   H         4.9665572581        3.9999998603        4.4143101040
| 13>   H         3.0334427283        3.9999998977        4.4143100662
| 14>   S         4.0000000118        4.0000002425        3.4705917677
| 15> *
| 16>
| 17>                          ****END OF INPUT****

CARTESIAN COORDINATES (ANGSTROEM)
---------------------------------
  H      4.966557    4.000000    4.414310
  H      3.033443    4.000000    4.414310
  S      4.000000    4.000000    3.470592

 Total Charge           Charge          ....    0
 Multiplicity           Mult            ....    1
 Number of Electrons    NEL             ....   18
 Basis Dimension        Dim             ....   68

ORBITAL ENERGIES
----------------

  NO   OCC          E(Eh)            E(eV)
   0   2.0000     -89.028650     -2422.5927
   1   2.0000      -8.009052      -217.9374
   2   2.0000      -5.946439      -161.8108
   3   2.0000      -5.943546      -161.7321
   4   2.0000      -5.937689      -161.5727
   5   2.0000      -0.761315       -20.7164
   6   2.0000      -0.453997       -12.3539
   7   2.0000      -0.381467       -10.3802
   8   2.0000      -0.275830        -7.5057
   9   0.0000       0.020822         0.5666
  10   0.0000       0.031916         0.8685
  11   0.0000       0.195943         5.3319
  12   0.0000       0.224713         6.1147
  13   0.0000       0.257971         7.0197

MULLIKEN ATOMIC CHARGES
-----------------------
   0 H :    0.112371
   1 H :    0.112371
   2 S :   -0.224742
Sum of atomic charges:    0.0000000

LOEWDIN ATOMIC CHARGES
----------------------
   0 H :   -0.188411
   1 H :   -0.188411
   2 S :    0.376822

  Mayer bond orders larger than 0.100000
B(  0-H ,  2-S ) :   1.0318 B(  1-H ,  2-S ) :   1.0318

---------------------------------------------------------------------------------------------------------------------
                    SOC CORRECTED ABSORPTION SPECTRUM VIA TRANSITION ELECTRIC DIPOLE MOMENTS*
---------------------------------------------------------------------------------------------------------------------
   State    Energy  Wavelength   fosc         T2              TX                    TY                    TZ
            (cm-1)    (nm)                  (au**2)          (au)                  (au)                  (au)
---------------------------------------------------------------------------------------------------------------------
   0   1   44288.7    225.8   0.000000260   0.00000 ( -0.00000, -0.00000) ( -0.00139, -0.00006) ( -0.00000, -0.00000)
   0   2   44289.0    225.8   0.000004309   0.00003 ( -0.00414,  0.00386) (  0.00000, -0.00000) ( -0.00000,  0.00000)
   0   3   44289.2    225.8   0.000003583   0.00003 ( -0.00000, -0.00000) ( -0.00000,  0.00000) (  0.00516, -0.00000)
   0   4   49134.9    203.5   0.000000000   0.00000 ( -0.00000, -0.00000) (  0.00000,  0.00000) (  0.00000, -0.00000)
   0   5   49197.5    203.3   0.000010445   0.00007 ( -0.00825,  0.00138) (  0.00000, -0.00000) (  0.00000, -0.00000)
   0   6   49198.0    203.3   0.000013768   0.00009 ( -0.00000, -0.00000) (  0.00000,  0.00000) ( -0.00960,  0.00000)
   0   7   49252.4    203.0   0.000000000   0.00000 (  0.00000, -0.00000) ( -0.00000,  0.00000) (  0.00000, -0.00000)
   0   8   55112.9    181.4   0.026429694   0.15788 (  0.00000,  0.00000) (  0.04879,  0.39433) (  0.00000,  0.00000)
   0   9   62137.8    160.9   0.000001252   0.00001 ( -0.00000, -0.00000) ( -0.00228, -0.00120) ( -0.00000, -0.00000)
   0  10   62138.3    160.9   0.000000000   0.00000 (  0.00000, -0.00000) ( -0.00000,  0.00000) ( -0.00000, -0.00000)
   0  11   62138.3    160.9   0.000000035   0.00000 (  0.00000, -0.00000) ( -0.00000,  0.00000) (  0.00043, -0.00000)
   0  12   70222.9    142.4   0.000000000   0.00000 ( -0.00000,  0.00000) ( -0.00000,  0.00000) (  0.00000, -0.00000)
   0  13   70223.2    142.4   0.000004140   0.00002 (  0.00066, -0.00436) ( -0.00000,  0.00000) ( -0.00000,  0.00000)
   0  14   70223.2    142.4   0.000004830   0.00002 ( -0.00000, -0.00000) ( -0.00005, -0.00476) ( -0.00000, -0.00000)
   0  15   78854.9    126.8   0.178704778   0.74608 (  0.00000, -0.00000) (  0.00000, -0.00000) ( -0.86376,  0.00000)
   0  16   79779.7    125.3   0.007033209   0.02902 (  0.08981,  0.14476) ( -0.00000, -0.00000) (  0.00000,  0.00000)
   0  17   79804.0    125.3   0.000000000   0.00000 (  0.00000, -0.00000) (  0.00000, -0.00000) ( -0.00000, -0.00000)
   0  18   79804.1    125.3   0.000000387   0.00000 ( -0.00000,  0.00000) ( -0.00001,  0.00126) ( -0.00000,  0.00000)
   0  19   80212.5    124.7   0.109176466   0.44809 ( -0.59178,  0.31287) (  0.00000, -0.00000) ( -0.00000,  0.00000)
   0  20   85550.7    116.9   0.000000000   0.00000 ( -0.00000, -0.00000) (  0.00000,  0.00000) (  0.00000, -0.00000)
   0  21   85550.8    116.9   0.000001142   0.00000 (  0.00000, -0.00000) (  0.00058, -0.00201) (  0.00000, -0.00000)
   0  22   85551.6    116.9   0.000076852   0.00030 (  0.00000,  0.00000) ( -0.00000,  0.00000) (  0.01720, -0.00000)
   0  23   87918.1    113.7   0.000002487   0.00001 (  0.00305,  0.00002) ( -0.00000, -0.00000) ( -0.00000, -0.00000)
   0  24   87918.2    113.7   0.000016286   0.00006 (  0.00000, -0.00000) (  0.00000,  0.00000) ( -0.00781,  0.00000)
   0  25   87919.9    113.7   0.000000006   0.00000 ( -0.00000,  0.00000) ( -0.00005,  0.00015) ( -0.00000,  0.00000)
   0  26   87922.5    113.7   0.000000000   0.00000 ( -0.00000,  0.00000) ( -0.00000,  0.00000) ( -0.00000,  0.00000)
   0  27   87924.2    113.7   0.000019174   0.00007 (  0.00847, -0.00012) ( -0.00000,  0.00000) (  0.00000, -0.00000)
   0  28   87924.4    113.7   0.000001494   0.00001 (  0.00000,  0.00000) ( -0.00000,  0.00000) (  0.00236, -0.00000)
   0  29   89196.4    112.1   0.000000000   0.00000 (  0.00000,  0.00000) ( -0.00000,  0.00000) ( -0.00000, -0.00000)
   0  30   96241.6    103.9   0.466183587   1.59467 (  1.26243,  0.03039) ( -0.00000, -0.00000) ( -0.00000, -0.00000)
   0  31   96619.5    103.5   0.268177608   0.91376 (  0.00000, -0.00000) ( -0.00000,  0.00000) (  0.95591, -0.00000)
   0  32   97231.0    102.8   0.000000000   0.00000 (  0.00000,  0.00000) ( -0.00000, -0.00000) ( -0.00000,  0.00000)
   0  33   97231.1    102.8   0.000035309   0.00012 ( -0.00313, -0.01048) (  0.00000,  0.00000) ( -0.00000, -0.00000)
   0  34   97236.4    102.8   0.000191071   0.00065 ( -0.00000,  0.00000) ( -0.00076,  0.02542) ( -0.00000,  0.00000)
   0  35   97710.3    102.3   0.000199745   0.00067 ( -0.00000, -0.00000) (  0.00000,  0.00000) ( -0.02594,  0.00000)
   0  36   97720.9    102.3   0.000002954   0.00001 ( -0.00090, -0.00302) (  0.00000,  0.00000) ( -0.00000, -0.00000)
   0  37   97721.0    102.3   0.000000000   0.00000 (  0.00000,  0.00000) ( -0.00000, -0.00000) (  0.00000,  0.00000)
   0  38   97776.9    102.3   0.029325815   0.09874 ( -0.00000, -0.00000) ( -0.00232, -0.31422) ( -0.00000, -0.00000)
   0  39  100846.6     99.2   0.026950168   0.08798 (  0.00000, -0.00000) (  0.25605, -0.14972) (  0.00000, -0.00000)
   0  40  109625.2     91.2   0.009735732   0.02924 ( -0.00000,  0.00000) ( -0.00000,  0.00000) ( -0.17099,  0.00000)

FINAL SINGLE POINT ENERGY      -399.059078037246

DIPOLE MOMENT
-------------
                                X             Y             Z
Electronic contribution:      0.00000       0.00000      -1.21838
Nuclear contribution   :     -0.00000      -0.00000       1.66760
                        -----------------------------------------
Total Dipole Moment    :     -0.00000      -0.00000       0.44922
                        -----------------------------------------
Magnitude (a.u.)       :      0.44922
Magnitude (Debye)      :      1.14183

Rotational constants in cm-1:     9.979452     8.950580     4.718528
Rotational constants in MHz : 299176.445689 268331.647586 141457.909661

                             ****ORCA TERMINATED NORMALLY****
TOTAL RUN TIME: 0 days 0 hours 0 minutes 26 seconds 568 msec
