                         Program Version 5.0.4 -  RELEASE  -
|  1> !PBE0 nososcf NoRI
|  2> %SCF Guess HCore
|  3>      DIISMaxIt -1
|  4> end
|  5> %TDDFT NROOTS 10
|  6>        DOSOC TRUE
|  7> end
|  8> %basis
|  9>         GTOName "../../../basis_orca"
| 10> end
| 11> * xyz 0 1
| 12> Se         5.1618277595        4.8438671571        3.6417568905
| 13>   C         3.9543992164        3.6093817642        3.9948679600
| 14>   H         3.3491600024        3.1607797300        3.2038237080
| 15>   H         3.7785516115        3.2585462828        5.0148762793
| 16> *
| 17>
| 18>                          ****END OF INPUT****

CARTESIAN COORDINATES (ANGSTROEM)
---------------------------------
  Se     5.161828    4.843867    3.641757
  C      3.954399    3.609382    3.994868
  H      3.349160    3.160780    3.203824
  H      3.778552    3.258546    5.014876

 Total Charge           Charge          ....    0
 Multiplicity           Mult            ....    1
 Number of Electrons    NEL             ....   42
 Basis Dimension        Dim             ....  124

ORBITAL ENERGIES
----------------

  NO   OCC          E(Eh)            E(eV)
   0   2.0000    -453.698237    -12345.7567
   1   2.0000     -58.101700     -1581.0276
   2   2.0000     -52.143278     -1418.8907
   3   2.0000     -52.142313     -1418.8645
   4   2.0000     -52.139578     -1418.7901
   5   2.0000     -10.305636      -280.4306
   6   2.0000      -7.876134      -214.3205
   7   2.0000      -5.800586      -157.8420
   8   2.0000      -5.798005      -157.7717
   9   2.0000      -5.788165      -157.5040
  10   2.0000      -2.145994       -58.3955
  11   2.0000      -2.144941       -58.3668
  12   2.0000      -2.136658       -58.1414
  13   2.0000      -2.134836       -58.0919
  14   2.0000      -2.132880       -58.0386
  15   2.0000      -0.790652       -21.5147
  16   2.0000      -0.618839       -16.8395
  17   2.0000      -0.475569       -12.9409
  18   2.0000      -0.392159       -10.6712
  19   2.0000      -0.313729        -8.5370
  20   2.0000      -0.235944        -6.4204
  21   0.0000      -0.103641        -2.8202
  22   0.0000       0.043763         1.1909
  23   0.0000       0.098681         2.6852
  24   0.0000       0.105621         2.8741
  25   0.0000       0.222685         6.0596

MULLIKEN ATOMIC CHARGES
-----------------------
   0 Se:    0.232190
   1 C :   -0.409195
   2 H :    0.088472
   3 H :    0.088533
Sum of atomic charges:    0.0000000

LOEWDIN ATOMIC CHARGES
----------------------
   0 Se:    0.446108
   1 C :   -0.207805
   2 H :   -0.119317
   3 H :   -0.118986

  Mayer bond orders larger than 0.100000
B(  0-Se,  1-C ) :   1.9578 B(  1-C ,  2-H ) :   0.9912 B(  1-C ,  3-H ) :   0.9910

---------------------------------------------------------------------------------------------------------------------
                    SOC CORRECTED ABSORPTION SPECTRUM VIA TRANSITION ELECTRIC DIPOLE MOMENTS*
---------------------------------------------------------------------------------------------------------------------
   State    Energy  Wavelength   fosc         T2              TX                    TY                    TZ
            (cm-1)    (nm)                  (au**2)          (au)                  (au)                  (au)
---------------------------------------------------------------------------------------------------------------------
   0   1   11038.4    905.9   0.000000953   0.00003 ( -0.00088, -0.00087) ( -0.00020, -0.00020) ( -0.00368, -0.00365)
   0   2   11040.8    905.7   0.000002037   0.00006 ( -0.00130,  0.00523) (  0.00134, -0.00538) (  0.00024, -0.00095)
   0   3   11155.3    896.4   0.000737186   0.02176 (  0.08871,  0.04840) (  0.09068,  0.04948) ( -0.02594, -0.01415)
   0   4   15478.1    646.1   0.000000000   0.00000 ( -0.00004,  0.00004) (  0.00005, -0.00004) (  0.00004, -0.00003)
   0   5   20480.2    488.3   0.000000065   0.00000 (  0.00016,  0.00017) (  0.00004,  0.00004) (  0.00069,  0.00071)
   0   6   20486.2    488.1   0.000000648   0.00001 (  0.00050, -0.00217) ( -0.00051,  0.00224) ( -0.00009,  0.00039)
   0   7   20525.0    487.2   0.000000000   0.00000 ( -0.00000,  0.00000) (  0.00001, -0.00001) (  0.00000, -0.00000)
   0   8   41449.8    241.3   0.001900202   0.01509 ( -0.06935, -0.04766) ( -0.07091, -0.04874) (  0.02031,  0.01396)
   0   9   41509.8    240.9   0.000075811   0.00060 ( -0.00402, -0.00400) ( -0.00093, -0.00093) ( -0.01689, -0.01680)
   0  10   41513.1    240.9   0.000000000   0.00000 ( -0.00000,  0.00000) ( -0.00000,  0.00000) ( -0.00000,  0.00000)
   0  11   45235.0    221.1   0.000000000   0.00000 ( -0.00000,  0.00000) ( -0.00000,  0.00000) (  0.00000, -0.00000)
   0  12   45241.6    221.0   0.000003896   0.00003 (  0.00087, -0.00362) ( -0.00088,  0.00364) ( -0.00016,  0.00066)
   0  13   45253.4    221.0   0.000158393   0.00115 ( -0.00664,  0.02228) ( -0.00679,  0.02279) (  0.00194, -0.00653)
   0  14   49657.0    201.4   0.019700333   0.13061 ( -0.05775,  0.23981) (  0.06096, -0.25312) (  0.01040, -0.04320)
   0  15   50789.6    196.9   0.241676325   1.56652 ( -0.60697, -0.60179) ( -0.62119, -0.61590) (  0.18888,  0.18727)
   0  16   50803.8    196.8   0.022692548   0.14705 ( -0.19298, -0.19197) ( -0.19047, -0.18947) (  0.01978,  0.01968)
   0  17   59568.5    167.9   0.000000008   0.00000 (  0.00001, -0.00000) (  0.00020, -0.00006) (  0.00004, -0.00001)
   0  18   59570.3    167.9   0.000073413   0.00041 (  0.00783, -0.01245) ( -0.00719,  0.01142) ( -0.00144,  0.00229)
   0  19   59570.5    167.9   0.000008180   0.00005 ( -0.00364,  0.00328) (  0.00332, -0.00299) (  0.00081, -0.00073)
   0  20   59600.7    167.8   0.000003788   0.00002 (  0.00015,  0.00080) ( -0.00000, -0.00001) (  0.00085,  0.00442)
   0  21   59605.3    167.8   0.000000081   0.00000 (  0.00012, -0.00053) ( -0.00008,  0.00036) ( -0.00002,  0.00011)
   0  22   59608.7    167.8   0.000320440   0.00177 (  0.00532,  0.02786) (  0.00561,  0.02940) ( -0.00156, -0.00819)
   0  23   61406.3    162.8   0.000000011   0.00000 ( -0.00005,  0.00005) ( -0.00002,  0.00002) ( -0.00017,  0.00016)
   0  24   61408.5    162.8   0.000233085   0.00125 ( -0.00605, -0.00609) ( -0.00162, -0.00163) ( -0.02412, -0.02427)
   0  25   61443.9    162.8   0.000100535   0.00054 (  0.01106,  0.01140) (  0.01130,  0.01165) ( -0.00333, -0.00343)
   0  26   61743.9    162.0   0.004304682   0.02295 ( -0.02656, -0.02617) ( -0.00754, -0.00743) ( -0.10433, -0.10279)
   0  27   62770.2    159.3   0.000000003   0.00000 ( -0.00006,  0.00007) (  0.00004, -0.00005) (  0.00002, -0.00002)
   0  28   62799.3    159.2   0.000002493   0.00001 ( -0.00112,  0.00221) (  0.00118, -0.00231) (  0.00020, -0.00040)
   0  29   62800.2    159.2   0.000013254   0.00007 (  0.00152,  0.00129) (  0.00039,  0.00033) (  0.00617,  0.00522)
   0  30   65274.8    153.2   0.000000425   0.00000 (  0.00007, -0.00012) (  0.00074, -0.00125) ( -0.00006,  0.00010)
   0  31   65833.0    151.9   0.167856438   0.83940 ( -0.14784, -0.60871) ( -0.15169, -0.62456) (  0.04347,  0.17899)
   0  32   66959.1    149.3   0.031311692   0.15395 (  0.06389, -0.26640) ( -0.06446,  0.26879) ( -0.01164,  0.04854)
   0  33   75498.3    132.5   0.000000000   0.00000 (  0.00000, -0.00000) ( -0.00001,  0.00001) ( -0.00001,  0.00001)
   0  34   75503.3    132.4   0.000000443   0.00000 ( -0.00015, -0.00015) (  0.00002,  0.00002) ( -0.00097, -0.00097)
   0  35   75505.3    132.4   0.000000063   0.00000 (  0.00027,  0.00029) (  0.00022,  0.00023) ( -0.00008, -0.00009)
   0  36   76540.6    130.6   0.000425260   0.00183 (  0.00700, -0.02872) ( -0.00721,  0.02958) ( -0.00126,  0.00518)
   0  37   76548.4    130.6   0.000000005   0.00000 (  0.00007, -0.00007) ( -0.00007,  0.00007) ( -0.00002,  0.00002)
   0  38   76553.7    130.6   0.000002631   0.00001 ( -0.00052, -0.00051) ( -0.00011, -0.00011) ( -0.00233, -0.00231)
   0  39   78112.8    128.0   0.015851732   0.06681 (  0.04172, -0.17337) ( -0.04313,  0.17922) ( -0.00750,  0.03118)
   0  40   80077.2    124.9   0.000000461   0.00000 (  0.00031, -0.00030) ( -0.00081,  0.00077) ( -0.00049,  0.00047)

FINAL SINGLE POINT ENERGY     -2439.458248920067

DIPOLE MOMENT
-------------
                                X             Y             Z
Electronic contribution:      4.17120       4.26530      -1.22041
Nuclear contribution   :     -4.60156      -4.70554       1.34627
                        -----------------------------------------
Total Dipole Moment    :     -0.43035      -0.44024       0.12586
                        -----------------------------------------
Magnitude (a.u.)       :      0.62838
Magnitude (Debye)      :      1.59721

Rotational constants in cm-1:     9.628434     0.410300     0.393531
Rotational constants in MHz : 288653.186002 12300.499530 11797.756824

                             ****ORCA TERMINATED NORMALLY****
TOTAL RUN TIME: 0 days 0 hours 1 minutes 35 seconds 539 msec
