                         Program Version 5.0.4 -  RELEASE  -
|  1> !PBE0 nososcf NoRI
|  2> %SCF Guess HCore
|  3>      DIISMaxIt -1
|  4> end
|  5> %TDDFT NROOTS 10
|  6>        DOSOC TRUE
|  7> end
|  8> %basis
|  9>         GTOName "../../../basis_orca"
| 10> end
| 11> * xyz  0 1
| 12>   F         3.2935082407        3.9999999965        3.9999999964
| 13>   F         4.7064917593        4.0000000035        4.0000000036
| 14> *
| 15>
| 16>                          ****END OF INPUT****

CARTESIAN COORDINATES (ANGSTROEM)
---------------------------------
  F      3.293508    4.000000    4.000000
  F      4.706492    4.000000    4.000000

 Total Charge           Charge          ....    0
 Multiplicity           Mult            ....    1
 Number of Electrons    NEL             ....   18
 Basis Dimension        Dim             ....   62

ORBITAL ENERGIES
----------------

  NO   OCC          E(Eh)            E(eV)
   0   2.0000     -24.880829      -677.0418
   1   2.0000     -24.880785      -677.0406
   2   2.0000      -1.382531       -37.6206
   3   2.0000      -1.140843       -31.0439
   4   2.0000      -0.619673       -16.8622
   5   2.0000      -0.561370       -15.2757
   6   2.0000      -0.561370       -15.2757
   7   2.0000      -0.431721       -11.7477
   8   2.0000      -0.431721       -11.7477
   9   0.0000      -0.144051        -3.9198
  10   0.0000       0.455004        12.3813
  11   0.0000       0.509611        13.8672
  12   0.0000       0.509611        13.8672
  13   0.0000       0.603385        16.4189

MULLIKEN ATOMIC CHARGES
-----------------------
   0 F :    0.000000
   1 F :   -0.000000
Sum of atomic charges:   -0.0000000

LOEWDIN ATOMIC CHARGES
----------------------
   0 F :    0.000000
   1 F :   -0.000000

  Mayer bond orders larger than 0.100000
B(  0-F ,  1-F ) :   0.9485

---------------------------------------------------------------------------------------------------------------------
                    SOC CORRECTED ABSORPTION SPECTRUM VIA TRANSITION ELECTRIC DIPOLE MOMENTS*
---------------------------------------------------------------------------------------------------------------------
   State    Energy  Wavelength   fosc         T2              TX                    TY                    TZ
            (cm-1)    (nm)                  (au**2)          (au)                  (au)                  (au)
---------------------------------------------------------------------------------------------------------------------
   0   1   23260.3    429.9   0.000000000   0.00000 (  0.00000,  0.00000) (  0.00000,  0.00000) ( -0.00000, -0.00000)
   0   2   23260.4    429.9   0.000000000   0.00000 (  0.00000,  0.00000) (  0.00000,  0.00000) (  0.00000,  0.00000)
   0   3   23410.5    427.2   0.000000000   0.00000 ( -0.00000,  0.00000) ( -0.00000,  0.00002) ( -0.00000,  0.00001)
   0   4   23410.5    427.2   0.000000000   0.00000 (  0.00000, -0.00000) (  0.00000, -0.00001) ( -0.00000,  0.00002)
   0   5   23564.1    424.4   0.000000000   0.00000 ( -0.00000, -0.00000) (  0.00000,  0.00000) (  0.00000,  0.00000)
   0   6   23564.9    424.4   0.000008578   0.00012 ( -0.01088, -0.00118) ( -0.00000, -0.00000) ( -0.00000, -0.00000)
   0   7   36354.7    275.1   0.000000167   0.00000 (  0.00000, -0.00000) ( -0.00004,  0.00033) (  0.00013, -0.00118)
   0   8   36354.7    275.1   0.000000167   0.00000 (  0.00000, -0.00000) (  0.00013, -0.00118) (  0.00004, -0.00033)
   0   9   52666.5    189.9   0.000000000   0.00000 (  0.00000,  0.00000) (  0.00000,  0.00000) (  0.00000, -0.00000)
   0  10   52666.5    189.9   0.000000000   0.00000 ( -0.00000,  0.00000) ( -0.00000,  0.00000) (  0.00000, -0.00000)
   0  11   52791.9    189.4   0.000000000   0.00000 ( -0.00000, -0.00000) ( -0.00000, -0.00000) (  0.00000,  0.00000)
   0  12   52791.9    189.4   0.000000000   0.00000 (  0.00000, -0.00000) ( -0.00000,  0.00000) ( -0.00000,  0.00000)
   0  13   52920.1    189.0   0.000000000   0.00000 ( -0.00000, -0.00000) (  0.00000,  0.00000) ( -0.00000, -0.00000)
   0  14   52921.7    189.0   0.000000000   0.00000 ( -0.00000,  0.00000) ( -0.00000,  0.00000) ( -0.00000,  0.00000)
   0  15   56316.7    177.6   0.000000000   0.00000 ( -0.00000, -0.00000) (  0.00000, -0.00000) (  0.00000, -0.00000)
   0  16   56317.0    177.6   0.000000023   0.00000 ( -0.00000,  0.00000) ( -0.00002,  0.00019) (  0.00003, -0.00031)
   0  17   56317.0    177.6   0.000000023   0.00000 ( -0.00000,  0.00000) (  0.00003, -0.00031) (  0.00002, -0.00019)
   0  18   64729.6    154.5   0.000000000   0.00000 (  0.00000, -0.00000) (  0.00000, -0.00000) (  0.00000, -0.00000)
   0  19   64729.6    154.5   0.000000000   0.00000 ( -0.00000,  0.00000) (  0.00000, -0.00000) ( -0.00000,  0.00000)
   0  20  125102.7     79.9   1.103558050   2.90405 ( -1.69412, -0.18442) ( -0.00000, -0.00000) ( -0.00000, -0.00000)
   0  21  172308.4     58.0   0.000000000   0.00000 ( -0.00000, -0.00000) (  0.00000,  0.00000) (  0.00000,  0.00000)
   0  22  172308.6     58.0   0.000000000   0.00000 (  0.00000,  0.00000) ( -0.00000, -0.00000) (  0.00000,  0.00000)
   0  23  172453.1     58.0   0.000082754   0.00016 (  0.00000, -0.00000) ( -0.00112,  0.01028) ( -0.00077,  0.00711)
   0  24  172453.1     58.0   0.000082754   0.00016 (  0.00000, -0.00000) (  0.00077, -0.00711) ( -0.00112,  0.01028)
   0  25  172611.0     57.9   0.000000000   0.00000 ( -0.00000, -0.00000) (  0.00000,  0.00000) (  0.00000,  0.00000)
   0  26  172612.1     57.9   0.000000010   0.00000 ( -0.00014, -0.00001) ( -0.00000, -0.00000) ( -0.00000, -0.00000)
   0  27  175267.5     57.1   0.000043304   0.00008 (  0.00000, -0.00000) (  0.00070, -0.00646) ( -0.00068,  0.00622)
   0  28  175267.5     57.1   0.000043301   0.00008 (  0.00000, -0.00000) ( -0.00068,  0.00622) ( -0.00070,  0.00646)
   0  29  175267.7     57.1   0.000000000   0.00000 (  0.00000,  0.00000) ( -0.00000, -0.00000) ( -0.00000, -0.00000)
   0  30  175856.8     56.9   0.000000000   0.00000 (  0.00000, -0.00000) ( -0.00000,  0.00000) ( -0.00000,  0.00000)
   0  31  175856.8     56.9   0.000000000   0.00000 ( -0.00000, -0.00000) (  0.00000,  0.00000) (  0.00000,  0.00000)
   0  32  175856.8     56.9   0.000000000   0.00000 (  0.00000, -0.00000) ( -0.00000,  0.00000) ( -0.00000, -0.00000)
   0  33  175885.5     56.9   0.042783838   0.08008 (  0.00000, -0.00000) ( -0.01677,  0.15409) ( -0.02562,  0.23537)
   0  34  175885.5     56.9   0.042783836   0.08008 ( -0.00000,  0.00000) (  0.02562, -0.23537) ( -0.01677,  0.15409)
   0  35  179499.4     55.7   0.000000000   0.00000 (  0.00000,  0.00000) (  0.00000,  0.00000) ( -0.00000, -0.00000)
   0  36  179507.3     55.7   0.000003630   0.00001 ( -0.00000,  0.00000) (  0.00025, -0.00227) ( -0.00013,  0.00119)
   0  37  179507.3     55.7   0.000003630   0.00001 (  0.00000, -0.00000) ( -0.00013,  0.00119) ( -0.00025,  0.00227)
   0  38  184580.6     54.2   0.000000000   0.00000 ( -0.00000, -0.00000) ( -0.00000, -0.00000) ( -0.00000, -0.00000)
   0  39  185113.3     54.0   0.000000000   0.00000 ( -0.00000, -0.00000) ( -0.00000, -0.00000) ( -0.00000, -0.00000)
   0  40  185126.9     54.0   0.000000000   0.00000 ( -0.00000, -0.00000) ( -0.00000, -0.00000) (  0.00000,  0.00000)

FINAL SINGLE POINT ENERGY      -199.295211039220

DIPOLE MOMENT
-------------
                                X             Y             Z
Electronic contribution:      0.00000       0.00000       0.00000
Nuclear contribution   :      0.00000      -0.00000      -0.00000
                        -----------------------------------------
Total Dipole Moment    :      0.00000       0.00000       0.00000
                        -----------------------------------------
Magnitude (a.u.)       :      0.00000
Magnitude (Debye)      :      0.00000

Rotational constants in cm-1:     0.000000     0.888883     0.888883
Rotational constants in MHz :     0.000000 26648.055486 26648.055486

                             ****ORCA TERMINATED NORMALLY****
TOTAL RUN TIME: 0 days 0 hours 1 minutes 0 seconds 654 msec
