                         Program Version 5.0.4 -  RELEASE  -
|  1> !PBE0 nososcf NoRI OPT
|  2> %SCF Guess HCore
|  3>      DIISMaxIt -1
|  4> end
|  5> %basis
|  6>         GTOName "../../../basis_orca"
|  7> end
|  8> * xyz 0 1
|  9> Te         5.1618277595        4.8438671571        3.6417568905
| 10>   C         3.9543992164        3.6093817642        3.9948679600
| 11>   H         3.3491600024        3.1607797300        3.2038237080
| 12>   H         3.7785516115        3.2585462828        5.0148762793
| 13> *
| 14>
| 15>                          ****END OF INPUT****
 Total Charge           Charge          ....    0
 Multiplicity           Mult            ....    1
 Number of Electrons    NEL             ....   60
FINAL SINGLE POINT ENERGY     -6632.336771663116
FINAL SINGLE POINT ENERGY     -6632.349760379731
FINAL SINGLE POINT ENERGY     -6632.352576704468
FINAL SINGLE POINT ENERGY     -6632.352834776427
FINAL SINGLE POINT ENERGY     -6632.352855111440
FINAL SINGLE POINT ENERGY     -6632.352862982853
FINAL SINGLE POINT ENERGY     -6632.352865341946
                    ***********************HURRAY********************

CARTESIAN COORDINATES (ANGSTROEM)
---------------------------------
  Te     5.241529    4.925383    3.618670
  C      3.927640    3.581801    4.002710
  H      3.325133    3.134212    3.222641
  H      3.749637    3.231179    5.011304

 Multiplicity           Mult            ....    1
 Number of Electrons    NEL             ....   60
 Basis Dimension        Dim             ....  132

ORBITAL ENERGIES
----------------

  NO   OCC          E(Eh)            E(eV)
   0   2.0000   -1115.753264    -30361.1898
   1   2.0000    -168.895243     -4595.8732
   2   2.0000    -158.814927     -4321.5739
   3   2.0000    -158.814649     -4321.5663
   4   2.0000    -158.813613     -4321.5381
   5   2.0000     -34.687782      -943.9025
   6   2.0000     -30.359298      -826.1185
   7   2.0000     -30.358315      -826.0917
   8   2.0000     -30.355757      -826.0221
   9   2.0000     -22.404064      -609.6456
  10   2.0000     -22.403954      -609.6426
  11   2.0000     -22.402117      -609.5926
  12   2.0000     -22.401447      -609.5744
  13   2.0000     -22.401033      -609.5631
  14   2.0000     -10.303875      -280.3827
  15   2.0000      -6.262353      -170.4073
  16   2.0000      -4.734471      -128.8315
  17   2.0000      -4.732900      -128.7888
  18   2.0000      -4.724032      -128.5475
  19   2.0000      -1.568696       -42.6864
  20   2.0000      -1.563297       -42.5395
  21   2.0000      -1.552623       -42.2490
  22   2.0000      -1.552413       -42.2433
  23   2.0000      -1.549574       -42.1660
  24   2.0000      -0.757271       -20.6064
  25   2.0000      -0.583843       -15.8872
  26   2.0000      -0.477009       -12.9801
  27   2.0000      -0.376195       -10.2368
  28   2.0000      -0.302917        -8.2428
  29   2.0000      -0.231051        -6.2872
  30   0.0000      -0.117967        -3.2101
  31   0.0000       0.005814         0.1582
  32   0.0000       0.051251         1.3946
  33   0.0000       0.054285         1.4772
  34   0.0000       0.058047         1.5795

MULLIKEN ATOMIC CHARGES
-----------------------
   0 Te:   -0.018171
   1 C :   -0.149281
   2 H :    0.083708
   3 H :    0.083744
Sum of atomic charges:    0.0000000

LOEWDIN ATOMIC CHARGES
----------------------
   0 Te:    0.350995
   1 C :   -0.145114
   2 H :   -0.102941
   3 H :   -0.102941

  Mayer bond orders larger than 0.100000
B(  0-Te,  1-C ) :   1.9974 B(  1-C ,  2-H ) :   1.0287 B(  1-C ,  3-H ) :   1.0289

FINAL SINGLE POINT ENERGY     -6632.352865538821

DIPOLE MOMENT
-------------
                                X             Y             Z
Electronic contribution:      5.49775       5.62205      -1.60727
Nuclear contribution   :     -5.95361      -6.08823       1.74062
                        -----------------------------------------
Total Dipole Moment    :     -0.45586      -0.46617       0.13335
                        -----------------------------------------
Magnitude (a.u.)       :      0.66551
Magnitude (Debye)      :      1.69160

Rotational constants in cm-1:     9.869713     0.329834     0.319168
Rotational constants in MHz : 295886.559456  9888.180496  9568.415320

                             ****ORCA TERMINATED NORMALLY****
TOTAL RUN TIME: 0 days 0 hours 4 minutes 34 seconds 100 msec
