                         Program Version 5.0.4 -  RELEASE  -
|  1> !PBE0 nososcf NoRI
|  2> %SCF Guess HCore
|  3>      DIISMaxIt -1
|  4> end
|  5> %TDDFT NROOTS 10
|  6>        DOSOC TRUE
|  7> end
|  8> %basis
|  9>         GTOName "../../../basis_orca"
| 10> end
| 11> * xyz 0 1
| 12>   H         4.7652544963        3.9999999958        4.2986025754
| 13>   H         3.2347455042        4.0000000037        4.2986025815
| 14>   O         3.9999999978        4.0000000012        3.7015767887
| 15> *
| 16>
| 17>                          ****END OF INPUT****

CARTESIAN COORDINATES (ANGSTROEM)
---------------------------------
  H      4.765254    4.000000    4.298603
  H      3.234746    4.000000    4.298603
  O      4.000000    4.000000    3.701577

 Total Charge           Charge          ....    0
 Multiplicity           Mult            ....    1
 Number of Electrons    NEL             ....   10
 Basis Dimension        Dim             ....   59

ORBITAL ENERGIES
----------------

  NO   OCC          E(Eh)            E(eV)
   0   2.0000     -19.202511      -522.5269
   1   2.0000      -1.032276       -28.0897
   2   2.0000      -0.539018       -14.6674
   3   2.0000      -0.402349       -10.9485
   4   2.0000      -0.325430        -8.8554
   5   0.0000       0.044554         1.2124
   6   0.0000       0.109702         2.9851
   7   0.0000       0.363595         9.8939
   8   0.0000       0.407597        11.0913
   9   0.0000       0.413140        11.2421

MULLIKEN ATOMIC CHARGES
-----------------------
   0 H :    0.234932
   1 H :    0.234932
   2 O :   -0.469865
Sum of atomic charges:   -0.0000000

LOEWDIN ATOMIC CHARGES
----------------------
   0 H :   -0.203047
   1 H :   -0.203047
   2 O :    0.406094

  Mayer bond orders larger than 0.100000
B(  0-H ,  2-O ) :   1.0134 B(  1-H ,  2-O ) :   1.0134

---------------------------------------------------------------------------------------------------------------------
                    SOC CORRECTED ABSORPTION SPECTRUM VIA TRANSITION ELECTRIC DIPOLE MOMENTS*
---------------------------------------------------------------------------------------------------------------------
   State    Energy  Wavelength   fosc         T2              TX                    TY                    TZ
            (cm-1)    (nm)                  (au**2)          (au)                  (au)                  (au)
---------------------------------------------------------------------------------------------------------------------
   0   1   59328.1    168.6   0.000000000   0.00000 ( -0.00000,  0.00000) (  0.00000, -0.00000) (  0.00000,  0.00000)
   0   2   59328.1    168.6   0.000000771   0.00000 (  0.00206, -0.00020) ( -0.00000,  0.00000) ( -0.00000,  0.00000)
   0   3   59328.2    168.6   0.000001302   0.00001 (  0.00000, -0.00000) (  0.00000, -0.00000) ( -0.00268,  0.00026)
   0   4   64859.7    154.2   0.044568277   0.22622 (  0.00000,  0.00000) (  0.04589,  0.47340) (  0.00000,  0.00000)
   0   5   74830.6    133.6   0.000000169   0.00000 ( -0.00000,  0.00000) (  0.00008,  0.00086) (  0.00000,  0.00000)
   0   6   74830.7    133.6   0.000000375   0.00000 (  0.00000, -0.00000) (  0.00000, -0.00000) ( -0.00128,  0.00012)
   0   7   74830.7    133.6   0.000001195   0.00001 ( -0.00228,  0.00022) (  0.00000, -0.00000) ( -0.00000,  0.00000)
   0   8   76063.0    131.5   0.000000000   0.00000 ( -0.00000,  0.00000) ( -0.00000,  0.00000) (  0.00000, -0.00000)
   0   9   76063.0    131.5   0.000001117   0.00000 (  0.00219, -0.00021) ( -0.00000,  0.00000) (  0.00000, -0.00000)
   0  10   76063.1    131.5   0.000001602   0.00001 ( -0.00000, -0.00000) ( -0.00025, -0.00262) ( -0.00000, -0.00000)
   0  11   78190.2    127.9   0.000000000   0.00000 (  0.00000, -0.00000) (  0.00000, -0.00000) ( -0.00000,  0.00000)
   0  12   83530.9    119.7   0.112908409   0.44499 ( -0.00000,  0.00000) ( -0.00000,  0.00000) (  0.63192, -0.21372)
   0  13   89991.7    111.1   0.000000036   0.00000 ( -0.00000, -0.00000) ( -0.00003, -0.00036) ( -0.00000, -0.00000)
   0  14   89991.8    111.1   0.000000000   0.00000 ( -0.00000, -0.00000) (  0.00000,  0.00000) (  0.00000,  0.00000)
   0  15   89991.8    111.1   0.000004616   0.00002 ( -0.00000, -0.00000) (  0.00000,  0.00000) ( -0.00042, -0.00409)
   0  16   97746.0    102.3   0.055890473   0.18824 ( -0.43184,  0.04186) (  0.00000, -0.00000) ( -0.00000,  0.00000)
   0  17  104421.9     95.8   0.000000000   0.00000 ( -0.00000, -0.00000) (  0.00000, -0.00000) (  0.00000, -0.00000)
   0  18  104421.9     95.8   0.000000135   0.00000 ( -0.00000, -0.00000) ( -0.00006, -0.00065) ( -0.00000, -0.00000)
   0  19  104421.9     95.8   0.000000320   0.00000 (  0.00000,  0.00000) (  0.00000,  0.00000) ( -0.00011, -0.00100)
   0  20  113239.2     88.3   0.255265466   0.74211 (  0.85744, -0.08312) ( -0.00000,  0.00000) ( -0.00000,  0.00000)
   0  21  116410.1     85.9   0.000000000   0.00000 ( -0.00000, -0.00000) ( -0.00000, -0.00000) (  0.00000,  0.00000)
   0  22  116410.1     85.9   0.000000000   0.00000 ( -0.00000,  0.00000) ( -0.00000, -0.00001) ( -0.00000, -0.00000)
   0  23  116410.2     85.9   0.000012028   0.00003 (  0.00580, -0.00056) ( -0.00000,  0.00000) ( -0.00000,  0.00000)
   0  24  128986.9     77.5   0.000000074   0.00000 ( -0.00043,  0.00004) (  0.00000, -0.00000) ( -0.00000,  0.00000)
   0  25  128986.9     77.5   0.000000027   0.00000 ( -0.00000,  0.00000) (  0.00003,  0.00026) (  0.00000,  0.00000)
   0  26  128986.9     77.5   0.000000190   0.00000 (  0.00000, -0.00000) (  0.00000, -0.00000) ( -0.00069,  0.00007)
   0  27  130810.7     76.4   0.099397470   0.25015 (  0.00000, -0.00000) ( -0.00000,  0.00000) (  0.48766, -0.11107)
   0  28  131192.4     76.2   0.000000000   0.00000 ( -0.00000,  0.00000) ( -0.00000,  0.00000) ( -0.00000,  0.00000)
   0  29  135814.0     73.6   0.000000010   0.00000 (  0.00016, -0.00002) ( -0.00000,  0.00000) ( -0.00000,  0.00000)
   0  30  135814.0     73.6   0.000000000   0.00000 ( -0.00000, -0.00000) ( -0.00000, -0.00000) ( -0.00000, -0.00000)
   0  31  135814.3     73.6   0.000000110   0.00000 (  0.00000, -0.00000) (  0.00000, -0.00000) (  0.00051, -0.00005)
   0  32  138265.2     72.3   0.000000000   0.00000 (  0.00000,  0.00000) ( -0.00000, -0.00000) (  0.00000,  0.00000)
   0  33  138265.2     72.3   0.000000030   0.00000 ( -0.00027,  0.00003) (  0.00000, -0.00000) (  0.00000, -0.00000)
   0  34  138265.2     72.3   0.000000017   0.00000 ( -0.00000,  0.00000) ( -0.00000,  0.00000) (  0.00020, -0.00002)
   0  35  138483.0     72.2   0.000002069   0.00000 ( -0.00000, -0.00000) ( -0.00021, -0.00221) ( -0.00000, -0.00000)
   0  36  138483.9     72.2   0.000000005   0.00000 ( -0.00011,  0.00001) (  0.00000, -0.00000) (  0.00000, -0.00000)
   0  37  138483.9     72.2   0.000000000   0.00000 (  0.00000, -0.00000) ( -0.00000,  0.00000) (  0.00000, -0.00000)
   0  38  139834.6     71.5   0.009845264   0.02318 (  0.00000,  0.00000) (  0.01469,  0.15154) (  0.00000,  0.00000)
   0  39  144935.4     69.0   0.078209783   0.17765 ( -0.00000, -0.00000) ( -0.04067, -0.41952) ( -0.00000, -0.00000)
   0  40  154233.7     64.8   0.012080462   0.02579 (  0.00000, -0.00000) ( -0.00000,  0.00000) (  0.15936, -0.01974)

FINAL SINGLE POINT ENERGY       -76.106194323175

DIPOLE MOMENT
-------------
                                X             Y             Z
Electronic contribution:     -0.00000       0.00000      -0.22085
Nuclear contribution   :      0.00000      -0.00000       0.99388
                        -----------------------------------------
Total Dipole Moment    :      0.00000      -0.00000       0.77303
                        -----------------------------------------
Magnitude (a.u.)       :      0.77303
Magnitude (Debye)      :      1.96488

Rotational constants in cm-1:    26.415669    14.278895     9.268721
Rotational constants in MHz : 791921.840682 428070.496561 277869.266248

                             ****ORCA TERMINATED NORMALLY****
TOTAL RUN TIME: 0 days 0 hours 0 minutes 8 seconds 514 msec
