                         Program Version 5.0.4 -  RELEASE  -
|  1> !PBE0 nososcf NoRI
|  2> %SCF Guess HCore
|  3>      DIISMaxIt -1
|  4> end
|  5> %TDDFT NROOTS 10
|  6>        DOSOC TRUE
|  7> end
|  8> %basis
|  9>         GTOName "../../../basis_orca"
| 10> end
| 11> * xyz 0 1
| 12> F         3.5337950833        4.0000000098        4.0000000060
| 13>   H         4.4662057308        3.9999999902        3.9999999940
| 14> *
| 15>
| 16>                          ****END OF INPUT****

CARTESIAN COORDINATES (ANGSTROEM)
---------------------------------
  F      3.533795    4.000000    4.000000
  H      4.466206    4.000000    4.000000

 Total Charge           Charge          ....    0
 Multiplicity           Mult            ....    1
 Number of Electrons    NEL             ....   10
 Basis Dimension        Dim             ....   45

ORBITAL ENERGIES
----------------

  NO   OCC          E(Eh)            E(eV)
   0   2.0000     -24.756127      -673.6485
   1   2.0000      -1.223525       -33.2938
   2   2.0000      -0.560722       -15.2580
   3   2.0000      -0.426519       -11.6062
   4   2.0000      -0.426516       -11.6061
   5   0.0000       0.039069         1.0631
   6   0.0000       0.375338        10.2135
   7   0.0000       0.503471        13.7001
   8   0.0000       0.535137        14.5618
   9   0.0000       0.535138        14.5618

MULLIKEN ATOMIC CHARGES
-----------------------
   0 F :   -0.333057
   1 H :    0.333057
Sum of atomic charges:    0.0000000

LOEWDIN ATOMIC CHARGES
----------------------
   0 F :    0.274574
   1 H :   -0.274574

  Mayer bond orders larger than 0.100000
B(  0-F ,  1-H ) :   0.9944

---------------------------------------------------------------------------------------------------------------------
                    SOC CORRECTED ABSORPTION SPECTRUM VIA TRANSITION ELECTRIC DIPOLE MOMENTS*
---------------------------------------------------------------------------------------------------------------------
   State    Energy  Wavelength   fosc         T2              TX                    TY                    TZ
            (cm-1)    (nm)                  (au**2)          (au)                  (au)                  (au)
---------------------------------------------------------------------------------------------------------------------
   0   1   78252.3    127.8   0.000000000   0.00000 ( -0.00000, -0.00000) ( -0.00000,  0.00000) (  0.00000,  0.00000)
   0   2   78252.3    127.8   0.000000006   0.00000 (  0.00016, -0.00000) ( -0.00000,  0.00000) ( -0.00000,  0.00000)
   0   3   78376.0    127.6   0.000016101   0.00007 ( -0.00000, -0.00000) ( -0.00216, -0.00794) (  0.00001,  0.00002)
   0   4   78376.6    127.6   0.000016109   0.00007 (  0.00000, -0.00000) (  0.00000, -0.00002) (  0.00000, -0.00823)
   0   5   78506.3    127.4   0.000000000   0.00000 ( -0.00000,  0.00000) (  0.00000, -0.00000) ( -0.00000, -0.00000)
   0   6   78506.8    127.4   0.000008393   0.00004 (  0.00593,  0.00000) ( -0.00000, -0.00000) ( -0.00000, -0.00000)
   0   7   83774.4    119.4   0.031283201   0.12294 ( -0.00000,  0.00000) ( -0.00000,  0.00085) ( -0.00000,  0.35062)
   0   8   83775.0    119.4   0.031281689   0.12293 ( -0.00000,  0.00000) ( -0.00181,  0.35061) (  0.00000, -0.00085)
   0   9  103192.1     96.9   0.000000000   0.00000 ( -0.00000,  0.00000) (  0.00000,  0.00000) ( -0.00000, -0.00000)
   0  10  103192.2     96.9   0.000001456   0.00000 ( -0.00000,  0.00000) ( -0.00000,  0.00001) ( -0.00000,  0.00216)
   0  11  103192.2     96.9   0.000001477   0.00000 (  0.00000,  0.00000) (  0.00000,  0.00217) ( -0.00000, -0.00001)
   0  12  119473.6     83.7   0.235455702   0.64880 (  0.80548, -0.00000) ( -0.00000,  0.00000) ( -0.00000,  0.00000)
   0  13  149981.1     66.7   0.000000000   0.00000 ( -0.00000, -0.00000) ( -0.00000, -0.00000) ( -0.00000,  0.00000)
   0  14  149981.1     66.7   0.000000009   0.00000 (  0.00014, -0.00000) ( -0.00000,  0.00000) ( -0.00000,  0.00000)
   0  15  150104.1     66.6   0.000044446   0.00010 ( -0.00000,  0.00000) ( -0.00987,  0.00011) (  0.00002, -0.00000)
   0  16  150104.7     66.6   0.000044469   0.00010 (  0.00000, -0.00000) (  0.00000, -0.00002) (  0.00000, -0.00988)
   0  17  150234.5     66.6   0.000000000   0.00000 (  0.00000,  0.00000) ( -0.00000,  0.00000) (  0.00000, -0.00000)
   0  18  150235.7     66.6   0.000001081   0.00000 (  0.00154,  0.00000) ( -0.00000, -0.00000) ( -0.00000, -0.00000)
   0  19  154895.4     64.6   0.065768950   0.13978 (  0.00000, -0.00000) (  0.00000, -0.00091) (  0.00000, -0.37388)
   0  20  154896.0     64.6   0.065770156   0.13979 (  0.00000,  0.00000) (  0.00195,  0.37387) ( -0.00000, -0.00091)
   0  21  170129.2     58.8   0.000000711   0.00000 ( -0.00000,  0.00000) ( -0.00000,  0.00000) ( -0.00000,  0.00117)
   0  22  170129.2     58.8   0.000000728   0.00000 ( -0.00000, -0.00000) ( -0.00050, -0.00108) (  0.00000,  0.00000)
   0  23  170129.3     58.8   0.000000000   0.00000 (  0.00000,  0.00000) ( -0.00000, -0.00000) ( -0.00000, -0.00000)
   0  24  174648.5     57.3   0.000000000   0.00000 (  0.00000,  0.00000) ( -0.00000, -0.00000) ( -0.00000, -0.00000)
   0  25  174649.1     57.3   0.000002248   0.00000 (  0.00000, -0.00000) (  0.00000, -0.00000) (  0.00000, -0.00206)
   0  26  174649.2     57.3   0.000002270   0.00000 (  0.00000, -0.00000) (  0.00115, -0.00172) ( -0.00000,  0.00000)
   0  27  178139.8     56.1   0.000000000   0.00000 ( -0.00000, -0.00000) (  0.00000, -0.00000) (  0.00000, -0.00003)
   0  28  178139.8     56.1   0.000000000   0.00000 (  0.00000, -0.00000) (  0.00000, -0.00002) ( -0.00000,  0.00000)
   0  29  178206.0     56.1   0.000000000   0.00000 ( -0.00000, -0.00000) ( -0.00000,  0.00000) ( -0.00000,  0.00000)
   0  30  178213.8     56.1   0.000000000   0.00000 (  0.00000,  0.00000) (  0.00000,  0.00000) (  0.00000,  0.00000)
   0  31  178287.5     56.1   0.000000479   0.00000 ( -0.00000,  0.00000) ( -0.00000,  0.00000) ( -0.00000,  0.00094)
   0  32  178287.9     56.1   0.000000451   0.00000 ( -0.00000, -0.00000) ( -0.00068, -0.00060) (  0.00000,  0.00000)
   0  33  179076.3     55.8   0.000001160   0.00000 ( -0.00000, -0.00000) (  0.00000, -0.00000) (  0.00000, -0.00146)
   0  34  179080.0     55.8   0.000000000   0.00000 (  0.00001,  0.00000) (  0.00000, -0.00000) (  0.00000, -0.00000)
   0  35  179080.1     55.8   0.000000000   0.00000 ( -0.00000, -0.00000) ( -0.00000, -0.00000) (  0.00000, -0.00000)
   0  36  182988.0     54.6   0.001098839   0.00198 ( -0.00000, -0.00000) ( -0.00001, -0.04446) (  0.00000,  0.00011)
   0  37  182991.5     54.6   0.001098558   0.00198 ( -0.00000,  0.00000) ( -0.00000,  0.00011) ( -0.00000,  0.04446)
   0  38  185553.5     53.9   0.000000000   0.00000 (  0.00000, -0.00000) (  0.00000,  0.00000) (  0.00000,  0.00000)
   0  39  186665.1     53.6   0.000000000   0.00000 (  0.00000,  0.00000) ( -0.00000, -0.00000) (  0.00000, -0.00000)
   0  40  186747.6     53.5   0.000000000   0.00000 (  0.00001,  0.00000) (  0.00000,  0.00000) ( -0.00000, -0.00000)

FINAL SINGLE POINT ENERGY      -100.033455864304

DIPOLE MOMENT
-------------
                                X             Y             Z
Electronic contribution:     -0.13631       0.00000       0.00000
Nuclear contribution   :      0.87422      -0.00000      -0.00000
                        -----------------------------------------
Total Dipole Moment    :      0.73791      -0.00000      -0.00000
                        -----------------------------------------
Magnitude (a.u.)       :      0.73791
Magnitude (Debye)      :      1.87562

Rotational constants in cm-1:     0.000000    20.256961    20.256961
Rotational constants in MHz :     0.000000 607288.426438 607288.426438

                             ****ORCA TERMINATED NORMALLY****
TOTAL RUN TIME: 0 days 0 hours 0 minutes 3 seconds 136 msec
