                         Program Version 5.0.4 -  RELEASE  -
|  1> !PBE0 nososcf NoRI
|  2> %SCF Guess HCore
|  3>      DIISMaxIt -1
|  4> end
|  5> %TDDFT NROOTS 10
|  6>        DOSOC TRUE
|  7> end
|  8> %basis
|  9>         GTOName "../../../basis_orca"
| 10> end
| 11> * xyz 0 1
| 12> S         5.0764699609        4.7916714754        3.6981496875
| 13>   C         3.9847468513        3.6366362784        3.9810021541
| 14>   H         3.3808128722        3.1968141985        3.1782412392
| 15>   H         3.8004562762        3.2426452093        4.9880190115
| 16> *
| 17>
| 18>                          ****END OF INPUT****

CARTESIAN COORDINATES (ANGSTROEM)
---------------------------------
  S      5.076470    4.791671    3.698150
  C      3.984747    3.636636    3.981002
  H      3.380813    3.196814    3.178241
  H      3.800456    3.242645    4.988019

 Total Charge           Charge          ....    0
 Multiplicity           Mult            ....    1
 Number of Electrons    NEL             ....   24
 Basis Dimension        Dim             ....   99

ORBITAL ENERGIES
----------------

  NO   OCC          E(Eh)            E(eV)
   0   2.0000     -89.024896     -2422.4906
   1   2.0000     -10.304466      -280.3988
   2   2.0000      -8.004498      -217.8135
   3   2.0000      -5.942057      -161.6916
   4   2.0000      -5.939747      -161.6287
   5   2.0000      -5.932247      -161.4246
   6   2.0000      -0.822254       -22.3747
   7   2.0000      -0.621130       -16.9018
   8   2.0000      -0.480122       -13.0648
   9   2.0000      -0.411035       -11.1848
  10   2.0000      -0.336247        -9.1497
  11   2.0000      -0.246768        -6.7149
  12   0.0000      -0.094537        -2.5725
  13   0.0000       0.055313         1.5052
  14   0.0000       0.102917         2.8005
  15   0.0000       0.116752         3.1770
  16   0.0000       0.196014         5.3338

MULLIKEN ATOMIC CHARGES
-----------------------
   0 S :   -0.141246
   1 C :   -0.048957
   2 H :    0.095097
   3 H :    0.095107
Sum of atomic charges:    0.0000000

LOEWDIN ATOMIC CHARGES
----------------------
   0 S :    0.256182
   1 C :   -0.067767
   2 H :   -0.094298
   3 H :   -0.094117

  Mayer bond orders larger than 0.100000
B(  0-S ,  1-C ) :   2.1068 B(  1-C ,  2-H ) :   0.9604 B(  1-C ,  3-H ) :   0.9604

---------------------------------------------------------------------------------------------------------------------
                    SOC CORRECTED ABSORPTION SPECTRUM VIA TRANSITION ELECTRIC DIPOLE MOMENTS*
---------------------------------------------------------------------------------------------------------------------
   State    Energy  Wavelength   fosc         T2              TX                    TY                    TZ
            (cm-1)    (nm)                  (au**2)          (au)                  (au)                  (au)
---------------------------------------------------------------------------------------------------------------------
   0   1   13378.6    747.5   0.000000023   0.00000 ( -0.00013, -0.00011) ( -0.00002, -0.00001) ( -0.00056, -0.00048)
   0   2   13378.8    747.5   0.000000043   0.00000 ( -0.00061, -0.00038) (  0.00061,  0.00038) (  0.00013,  0.00008)
   0   3   13382.3    747.3   0.000016953   0.00042 (  0.01381, -0.00010) (  0.01461, -0.00010) ( -0.00358,  0.00002)
   0   4   18363.0    544.6   0.000000001   0.00000 (  0.00007, -0.00009) ( -0.00006,  0.00008) ( -0.00003,  0.00004)
   0   5   25698.5    389.1   0.000000000   0.00000 (  0.00000,  0.00000) (  0.00000,  0.00000) (  0.00002,  0.00002)
   0   6   25698.7    389.1   0.000000000   0.00000 (  0.00000, -0.00000) ( -0.00000,  0.00000) ( -0.00000,  0.00000)
   0   7   25699.5    389.1   0.000000000   0.00000 (  0.00000, -0.00000) ( -0.00000,  0.00000) ( -0.00000,  0.00000)
   0   8   45614.3    219.2   0.000047414   0.00034 ( -0.01243, -0.00144) ( -0.01315, -0.00152) (  0.00323,  0.00037)
   0   9   45616.0    219.2   0.000001783   0.00001 ( -0.00067, -0.00046) ( -0.00008, -0.00005) ( -0.00289, -0.00196)
   0  10   45616.2    219.2   0.000000000   0.00000 ( -0.00000,  0.00000) (  0.00000, -0.00000) (  0.00000, -0.00000)
   0  11   50456.3    198.2   0.000000000   0.00000 (  0.00000, -0.00000) (  0.00000, -0.00000) ( -0.00000,  0.00000)
   0  12   50456.3    198.2   0.000001883   0.00001 (  0.00237, -0.00003) (  0.00251, -0.00004) ( -0.00061,  0.00001)
   0  13   50456.5    198.2   0.000000398   0.00000 ( -0.00023,  0.00111) (  0.00022, -0.00110) (  0.00005, -0.00023)
   0  14   55235.0    181.0   0.009696412   0.05779 (  0.02509,  0.16659) ( -0.02501, -0.16606) ( -0.00518, -0.03439)
   0  15   55513.1    180.1   0.001276461   0.00757 ( -0.02130, -0.01816) ( -0.00849, -0.00724) ( -0.06211, -0.05296)
   0  16   56138.1    178.1   0.217319270   1.27443 ( -0.76291, -0.02115) ( -0.80718, -0.02238) (  0.19967,  0.00554)
   0  17   62089.5    161.1   0.000000186   0.00000 (  0.00016,  0.00016) (  0.00002,  0.00002) (  0.00068,  0.00069)
   0  18   62089.6    161.1   0.000000254   0.00000 ( -0.00081, -0.00006) (  0.00081,  0.00006) (  0.00017,  0.00001)
   0  19   62090.0    161.1   0.000002825   0.00001 (  0.00262, -0.00004) (  0.00277, -0.00004) ( -0.00067,  0.00001)
   0  20   62825.8    159.2   0.000000000   0.00000 (  0.00002, -0.00003) ( -0.00002,  0.00003) ( -0.00000,  0.00000)
   0  21   62826.7    159.2   0.000000175   0.00000 ( -0.00058,  0.00000) ( -0.00071,  0.00000) (  0.00027, -0.00000)
   0  22   62826.7    159.2   0.000000370   0.00000 ( -0.00080,  0.00059) (  0.00077, -0.00056) (  0.00017, -0.00012)
   0  23   62877.8    159.0   0.000000004   0.00000 ( -0.00007,  0.00009) (  0.00006, -0.00007) (  0.00001, -0.00001)
   0  24   62878.0    159.0   0.000000293   0.00000 (  0.00034,  0.00001) (  0.00010,  0.00000) (  0.00119,  0.00003)
   0  25   62878.8    159.0   0.000000034   0.00000 (  0.00018, -0.00023) ( -0.00018,  0.00023) ( -0.00004,  0.00005)
   0  26   66564.9    150.2   0.012607013   0.06235 (  0.04270,  0.03607) (  0.00445,  0.00376) (  0.18586,  0.15700)
   0  27   67682.5    147.7   0.283438279   1.37866 ( -0.78846,  0.09205) ( -0.83460,  0.09743) (  0.20466, -0.02389)
   0  28   67754.4    147.6   0.000069378   0.00034 (  0.00809, -0.00970) (  0.00826, -0.00990) ( -0.00216,  0.00259)
   0  29   69480.6    143.9   0.000000000   0.00000 ( -0.00000,  0.00000) ( -0.00000,  0.00000) (  0.00000, -0.00000)
   0  30   69481.1    143.9   0.000002744   0.00001 ( -0.00007, -0.00006) ( -0.00065, -0.00050) (  0.00278,  0.00214)
   0  31   69481.1    143.9   0.000075053   0.00036 (  0.01004,  0.00794) (  0.01059,  0.00837) ( -0.00244, -0.00193)
   0  32   74005.1    135.1   0.024932674   0.11091 ( -0.17998, -0.14993) (  0.17804,  0.14831) (  0.03723,  0.03102)
   0  33   80831.8    123.7   0.000000000   0.00000 ( -0.00000,  0.00001) (  0.00000, -0.00000) (  0.00000, -0.00000)
   0  34   80831.8    123.7   0.000000704   0.00000 ( -0.00117, -0.00003) ( -0.00118, -0.00003) (  0.00030,  0.00001)
   0  35   80831.8    123.7   0.000005719   0.00002 (  0.00226, -0.00249) ( -0.00228,  0.00251) ( -0.00047,  0.00051)
   0  36   81603.7    122.5   0.000000000   0.00000 (  0.00000, -0.00000) ( -0.00000,  0.00000) ( -0.00001,  0.00001)
   0  37   81603.8    122.5   0.000000320   0.00000 ( -0.00077,  0.00001) ( -0.00081,  0.00001) (  0.00021, -0.00000)
   0  38   81603.8    122.5   0.000001613   0.00001 ( -0.00044, -0.00037) ( -0.00003, -0.00002) ( -0.00190, -0.00160)
   0  39   83786.3    119.4   0.000001288   0.00001 ( -0.00020,  0.00025) (  0.00079, -0.00100) (  0.00113, -0.00144)
   0  40   84994.7    117.7   0.093493511   0.36213 (  0.10391,  0.08788) (  0.01099,  0.00929) (  0.44743,  0.37843)

FINAL SINGLE POINT ENERGY      -437.234543298344

DIPOLE MOMENT
-------------
                                X             Y             Z
Electronic contribution:      1.66803       1.76470      -0.43227
Nuclear contribution   :     -2.14225      -2.26638       0.55507
                        -----------------------------------------
Total Dipole Moment    :     -0.47423      -0.50168       0.12280
                        -----------------------------------------
Magnitude (a.u.)       :      0.70118
Magnitude (Debye)      :      1.78226

Rotational constants in cm-1:     9.685172     0.586934     0.553398
Rotational constants in MHz : 290354.166903 17595.849336 16590.446197

                             ****ORCA TERMINATED NORMALLY****
TOTAL RUN TIME: 0 days 0 hours 0 minutes 39 seconds 861 msec
