                         Program Version 5.0.4 -  RELEASE  -
|  1> !PBE0 nososcf NoRI
|  2> %SCF Guess HCore
|  3>      DIISMaxIt -1
|  4> end
|  5> %TDDFT NROOTS 10
|  6>        DOSOC TRUE
|  7> end
|  8> %basis
|  9>         GTOName "../../../basis_orca"
| 10> end
| 11> * xyz 0 1
| 12>  I         3.1842678918        4.0000000003        4.0000000000
| 13>   H         4.8157276259        3.9999999997        4.0000000000
| 14> *
| 15>
| 16>                          ****END OF INPUT****

CARTESIAN COORDINATES (ANGSTROEM)
---------------------------------
  I      3.184268    4.000000    4.000000
  H      4.815728    4.000000    4.000000

 Total Charge           Charge          ....    0
 Multiplicity           Mult            ....    1
 Number of Electrons    NEL             ....   54
 Basis Dimension        Dim             ....   87

ORBITAL ENERGIES
----------------

  NO   OCC          E(Eh)            E(eV)
   0   2.0000   -1161.163736    -31596.8716
   1   2.0000    -176.908620     -4813.9283
   2   2.0000    -166.652795     -4534.8531
   3   2.0000    -166.651527     -4534.8186
   4   2.0000    -166.651526     -4534.8186
   5   2.0000     -36.789409     -1001.0907
   6   2.0000     -32.332074      -879.8005
   7   2.0000     -32.328785      -879.7110
   8   2.0000     -32.328784      -879.7109
   9   2.0000     -24.137566      -656.8166
  10   2.0000     -24.136681      -656.7925
  11   2.0000     -24.136680      -656.7925
  12   2.0000     -24.134368      -656.7296
  13   2.0000     -24.134368      -656.7296
  14   2.0000      -6.811156      -185.3410
  15   2.0000      -5.228047      -142.2624
  16   2.0000      -5.218311      -141.9975
  17   2.0000      -5.218307      -141.9974
  18   2.0000      -1.916134       -52.1406
  19   2.0000      -1.909150       -51.9506
  20   2.0000      -1.909145       -51.9505
  21   2.0000      -1.898108       -51.6502
  22   2.0000      -1.898108       -51.6502
  23   2.0000      -0.716232       -19.4897
  24   2.0000      -0.433664       -11.8006
  25   2.0000      -0.305159        -8.3038
  26   2.0000      -0.305158        -8.3038
  27   0.0000      -0.039970        -1.0876
  28   0.0000       0.051043         1.3890
  29   0.0000       0.063533         1.7288
  30   0.0000       0.067403         1.8341
  31   0.0000       0.067403         1.8341

MULLIKEN ATOMIC CHARGES
-----------------------
   0 I :   -0.084728
   1 H :    0.084728
Sum of atomic charges:   -0.0000000

LOEWDIN ATOMIC CHARGES
----------------------
   0 I :    0.186643
   1 H :   -0.186643

  Mayer bond orders larger than 0.100000
B(  0-I ,  1-H ) :   1.0172

---------------------------------------------------------------------------------------------------------------------
                    SOC CORRECTED ABSORPTION SPECTRUM VIA TRANSITION ELECTRIC DIPOLE MOMENTS*
---------------------------------------------------------------------------------------------------------------------
   State    Energy  Wavelength   fosc         T2              TX                    TY                    TZ
            (cm-1)    (nm)                  (au**2)          (au)                  (au)                  (au)
---------------------------------------------------------------------------------------------------------------------
   0   1   38468.8    260.0   0.000000000   0.00000 (  0.00000,  0.00000) ( -0.00000, -0.00000) (  0.00000,  0.00000)
   0   2   38468.8    260.0   0.000000000   0.00000 (  0.00000,  0.00000) (  0.00000,  0.00000) (  0.00000,  0.00000)
   0   3   39869.8    250.8   0.000011736   0.00010 ( -0.00000,  0.00000) ( -0.00000,  0.00984) (  0.00000, -0.00000)
   0   4   39870.0    250.8   0.000011740   0.00010 (  0.00000, -0.00000) (  0.00000, -0.00000) (  0.00001, -0.00985)
   0   5   42452.5    235.6   0.000000000   0.00000 ( -0.00000, -0.00000) ( -0.00000, -0.00000) ( -0.00000, -0.00000)
   0   6   42961.4    232.8   0.001745779   0.01338 (  0.11566,  0.00008) (  0.00000,  0.00000) (  0.00000,  0.00000)
   0   7   46900.3    213.2   0.000038331   0.00027 ( -0.00000, -0.00000) ( -0.00000, -0.00000) ( -0.00002, -0.01640)
   0   8   46900.6    213.2   0.000038333   0.00027 (  0.00000, -0.00000) ( -0.00001,  0.01640) (  0.00000, -0.00000)
   0   9   60710.4    164.7   0.000000000   0.00000 (  0.00000, -0.00000) (  0.00000, -0.00000) ( -0.00000,  0.00000)
   0  10   60776.1    164.5   0.000309199   0.00167 ( -0.00000,  0.00000) (  0.00000, -0.00000) (  0.00007, -0.04093)
   0  11   60776.1    164.5   0.000309186   0.00167 (  0.00000, -0.00000) ( -0.00002,  0.04092) (  0.00000, -0.00000)
   0  12   63691.9    157.0   0.000000000   0.00000 ( -0.00000, -0.00000) (  0.00000,  0.00000) ( -0.00000, -0.00000)
   0  13   63691.9    157.0   0.000000000   0.00000 (  0.00000, -0.00000) (  0.00000, -0.00000) (  0.00000, -0.00000)
   0  14   64750.2    154.4   0.050640053   0.25747 ( -0.00000,  0.00000) (  0.00025, -0.50742) (  0.00000, -0.00000)
   0  15   64750.3    154.4   0.050645594   0.25750 ( -0.00000,  0.00000) (  0.00000, -0.00000) ( -0.45827,  0.21791)
   0  16   67743.3    147.6   0.000000000   0.00000 (  0.00000,  0.00000) ( -0.00000, -0.00000) ( -0.00000, -0.00000)
   0  17   67743.3    147.6   0.000000000   0.00000 (  0.00000,  0.00000) (  0.00000,  0.00000) ( -0.00000, -0.00000)
   0  18   67976.4    147.1   0.000553327   0.00268 ( -0.00000,  0.00000) (  0.00003, -0.05177) ( -0.00000,  0.00000)
   0  19   67976.4    147.1   0.000553255   0.00268 ( -0.00000, -0.00000) ( -0.00000, -0.00000) ( -0.05048, -0.01147)
   0  20   68010.9    147.0   0.000438856   0.00212 (  0.04609,  0.00000) (  0.00000,  0.00000) ( -0.00000, -0.00000)
   0  21   68013.0    147.0   0.000000000   0.00000 ( -0.00000,  0.00000) (  0.00000, -0.00000) ( -0.00000,  0.00000)
   0  22   69097.1    144.7   0.000000000   0.00000 (  0.00000,  0.00000) (  0.00000,  0.00000) ( -0.00000, -0.00000)
   0  23   69545.7    143.8   0.000000000   0.00000 ( -0.00000,  0.00000) (  0.00000, -0.00000) ( -0.00000,  0.00000)
   0  24   69546.0    143.8   0.000000000   0.00000 ( -0.00001, -0.00000) (  0.00000,  0.00000) (  0.00000,  0.00000)
   0  25   69547.8    143.8   0.000000000   0.00000 ( -0.00000,  0.00000) ( -0.00000,  0.00000) ( -0.00000,  0.00000)
   0  26   69547.8    143.8   0.000000001   0.00000 ( -0.00000,  0.00000) ( -0.00000,  0.00006) ( -0.00000,  0.00000)
   0  27   70032.3    142.8   0.046860577   0.22028 ( -0.00000,  0.00000) ( -0.00000,  0.00000) ( -0.04417,  0.46726)
   0  28   70032.4    142.8   0.046805466   0.22003 ( -0.00000,  0.00000) (  0.00022, -0.46907) ( -0.00000,  0.00000)
   0  29   70191.2    142.5   0.160997212   0.75511 (  0.00000,  0.00000) (  0.00001,  0.00004) (  0.22879,  0.83831)
   0  30   70191.2    142.5   0.161051145   0.75536 (  0.00000, -0.00000) ( -0.00037,  0.86912) (  0.00000, -0.00004)
   0  31   72079.5    138.7   0.002564365   0.01171 (  0.10811, -0.00497) (  0.00000, -0.00000) ( -0.00000,  0.00000)
   0  32   72081.3    138.7   0.000000000   0.00000 ( -0.00000,  0.00000) ( -0.00000,  0.00000) ( -0.00000,  0.00000)
   0  33   72536.1    137.9   0.063796495   0.28955 ( -0.00000,  0.00000) (  0.00000, -0.00000) (  0.04705, -0.53603)
   0  34   72536.1    137.9   0.063804201   0.28958 (  0.00000, -0.00000) ( -0.00027,  0.53813) (  0.00000, -0.00000)
   0  35   73474.2    136.1   0.007233410   0.03241 (  0.00000, -0.00000) (  0.00000, -0.00004) (  0.00007, -0.18003)
   0  36   73474.2    136.1   0.007234945   0.03242 ( -0.00000,  0.00000) ( -0.00009,  0.18005) (  0.00000, -0.00004)
   0  37   73955.5    135.2   0.000000000   0.00000 (  0.00000, -0.00000) ( -0.00000,  0.00000) ( -0.00000,  0.00000)
   0  38   74391.2    134.4   0.000000001   0.00000 ( -0.00005, -0.00000) (  0.00000,  0.00000) (  0.00000,  0.00000)
   0  39   74395.5    134.4   0.000000000   0.00000 (  0.00000,  0.00000) ( -0.00000, -0.00000) (  0.00000,  0.00000)
   0  40   75850.5    131.8   0.035964247   0.15609 ( -0.39509, -0.00025) ( -0.00000, -0.00000) (  0.00000,  0.00000)

FINAL SINGLE POINT ENERGY     -6897.425011934914

DIPOLE MOMENT
-------------
                                X             Y             Z
Electronic contribution:     -1.39254       0.00000       0.00000
Nuclear contribution   :      1.77102      -0.00000       0.00000
                        -----------------------------------------
Total Dipole Moment    :      0.37848       0.00000       0.00000
                        -----------------------------------------
Magnitude (a.u.)       :      0.37848
Magnitude (Debye)      :      0.96201

Rotational constants in cm-1:     0.000000     6.333149     6.333149
Rotational constants in MHz :     0.000000 189863.043818 189863.043818

                             ****ORCA TERMINATED NORMALLY****
TOTAL RUN TIME: 0 days 0 hours 0 minutes 39 seconds 70 msec
