                         Program Version 5.0.4 -  RELEASE  -
|  1> !PBE0 nososcf NoRI
|  2> %SCF Guess HCore
|  3>      DIISMaxIt -1
|  4> end
|  5> %TDDFT NROOTS 10
|  6>        DOSOC TRUE
|  7> end
|  8> %basis
|  9>         GTOName "../../../basis_orca"
| 10> end
| 11> *xyz 0 1
| 12> Cl         3.0034974342        4.0000021725        4.0000041401
| 13>  Cl         4.9965025658        3.9999978275        3.9999958599
| 14> *
| 15>
| 16>                          ****END OF INPUT****

CARTESIAN COORDINATES (ANGSTROEM)
---------------------------------
  Cl     3.003497    4.000002    4.000004
  Cl     4.996503    3.999998    3.999996

 Total Charge           Charge          ....    0
 Multiplicity           Mult            ....    1
 Number of Electrons    NEL             ....   34
 Basis Dimension        Dim             ....   80

ORBITAL ENERGIES
----------------

  NO   OCC          E(Eh)            E(eV)
   0   2.0000    -101.757369     -2768.9588
   1   2.0000    -101.757363     -2768.9586
   2   2.0000      -9.582754      -260.7600
   3   2.0000      -9.582695      -260.7584
   4   2.0000      -7.321271      -199.2219
   5   2.0000      -7.321109      -199.2175
   6   2.0000      -7.307671      -198.8518
   7   2.0000      -7.307671      -198.8518
   8   2.0000      -7.307662      -198.8516
   9   2.0000      -7.307662      -198.8516
  10   2.0000      -0.960097       -26.1256
  11   2.0000      -0.788938       -21.4681
  12   2.0000      -0.487146       -13.2559
  13   2.0000      -0.425470       -11.5776
  14   2.0000      -0.425470       -11.5776
  15   2.0000      -0.319348        -8.6899
  16   2.0000      -0.319348        -8.6899
  17   0.0000      -0.113343        -3.0842
  18   0.0000       0.223873         6.0919
  19   0.0000       0.240093         6.5333
  20   0.0000       0.274056         7.4574
  21   0.0000       0.274056         7.4574

MULLIKEN ATOMIC CHARGES
-----------------------
   0 Cl:   -0.000000
   1 Cl:    0.000000
Sum of atomic charges:   -0.0000000

LOEWDIN ATOMIC CHARGES
----------------------
   0 Cl:   -0.000000
   1 Cl:    0.000000

  Mayer bond orders larger than 0.100000
B(  0-Cl,  1-Cl) :   1.0901

---------------------------------------------------------------------------------------------------------------------
                    SOC CORRECTED ABSORPTION SPECTRUM VIA TRANSITION ELECTRIC DIPOLE MOMENTS*
---------------------------------------------------------------------------------------------------------------------
   State    Energy  Wavelength   fosc         T2              TX                    TY                    TZ
            (cm-1)    (nm)                  (au**2)          (au)                  (au)                  (au)
---------------------------------------------------------------------------------------------------------------------
   0   1   22241.6    449.6   0.000000000   0.00000 ( -0.00000, -0.00000) (  0.00000,  0.00000) (  0.00000,  0.00000)
   0   2   22241.8    449.6   0.000000000   0.00000 ( -0.00000, -0.00000) ( -0.00000, -0.00000) (  0.00000,  0.00000)
   0   3   22557.5    443.3   0.000000293   0.00000 (  0.00000, -0.00000) ( -0.00009,  0.00151) (  0.00009, -0.00141)
   0   4   22557.5    443.3   0.000000293   0.00000 ( -0.00000,  0.00000) ( -0.00009,  0.00141) ( -0.00009,  0.00151)
   0   5   22901.1    436.7   0.000000000   0.00000 (  0.00000,  0.00000) ( -0.00000, -0.00000) ( -0.00000, -0.00000)
   0   6   22903.6    436.6   0.000112092   0.00161 ( -0.04006, -0.00247) (  0.00000,  0.00000) (  0.00000,  0.00000)
   0   7   30361.9    329.4   0.000224710   0.00244 ( -0.00000,  0.00000) ( -0.00220,  0.03571) ( -0.00209,  0.03394)
   0   8   30361.9    329.4   0.000224710   0.00244 (  0.00000, -0.00000) ( -0.00209,  0.03394) (  0.00220, -0.03571)
   0   9   45055.9    221.9   0.000000000   0.00000 ( -0.00000, -0.00000) (  0.00000,  0.00000) ( -0.00000,  0.00000)
   0  10   45055.9    221.9   0.000000000   0.00000 ( -0.00000,  0.00000) (  0.00000, -0.00000) ( -0.00000, -0.00000)
   0  11   45327.0    220.6   0.000000000   0.00000 (  0.00000, -0.00000) ( -0.00000,  0.00000) ( -0.00000,  0.00000)
   0  12   45327.0    220.6   0.000000000   0.00000 (  0.00000,  0.00000) ( -0.00000, -0.00000) (  0.00000,  0.00000)
   0  13   45618.0    219.2   0.000000000   0.00000 ( -0.00000,  0.00000) ( -0.00000,  0.00000) (  0.00000, -0.00000)
   0  14   45626.6    219.2   0.000000000   0.00000 (  0.00000,  0.00000) ( -0.00000, -0.00000) ( -0.00000, -0.00000)
   0  15   53288.6    187.7   0.000000000   0.00000 (  0.00000, -0.00000) ( -0.00000,  0.00000) (  0.00000, -0.00000)
   0  16   53288.6    187.7   0.000000000   0.00000 ( -0.00000,  0.00000) (  0.00000, -0.00000) (  0.00000, -0.00000)
   0  17   54316.4    184.1   0.000000000   0.00000 ( -0.00000, -0.00000) ( -0.00000,  0.00000) (  0.00000,  0.00000)
   0  18   54317.4    184.1   0.000001015   0.00001 (  0.00000, -0.00000) (  0.00011, -0.00174) (  0.00011, -0.00177)
   0  19   54317.4    184.1   0.000001015   0.00001 ( -0.00000,  0.00000) (  0.00028, -0.00175) ( -0.00027,  0.00172)
   0  20   84024.4    119.0   0.770742034   3.01981 ( -1.73447, -0.10690) (  0.00000,  0.00000) (  0.00001,  0.00000)
   0  21  100739.1     99.3   0.000000000   0.00000 ( -0.00000, -0.00000) ( -0.00000, -0.00000) (  0.00000,  0.00000)
   0  22  100739.1     99.3   0.000000000   0.00000 (  0.00000, -0.00000) ( -0.00000,  0.00000) ( -0.00000,  0.00000)
   0  23  101032.0     99.0   0.000000000   0.00000 ( -0.00000, -0.00000) ( -0.00000, -0.00000) (  0.00000,  0.00000)
   0  24  101032.0     99.0   0.000000000   0.00000 ( -0.00000, -0.00000) (  0.00000,  0.00000) (  0.00000,  0.00000)
   0  25  101391.3     98.6   0.000000000   0.00000 (  0.00000,  0.00000) ( -0.00000, -0.00000) (  0.00000,  0.00000)
   0  26  101391.8     98.6   0.000000000   0.00000 ( -0.00000, -0.00000) (  0.00000,  0.00000) ( -0.00000, -0.00000)
   0  27  104391.3     95.8   0.000000000   0.00000 ( -0.00000,  0.00000) (  0.00000, -0.00000) (  0.00000, -0.00000)
   0  28  104391.3     95.8   0.000000000   0.00000 ( -0.00000, -0.00000) ( -0.00000, -0.00000) (  0.00000,  0.00000)
   0  29  107338.4     93.2   0.000013546   0.00004 ( -0.00000,  0.00000) (  0.00030, -0.00446) ( -0.00031,  0.00463)
   0  30  107338.4     93.2   0.000013546   0.00004 ( -0.00000,  0.00000) ( -0.00029,  0.00463) ( -0.00027,  0.00446)
   0  31  107338.7     93.2   0.000000000   0.00000 ( -0.00000, -0.00000) ( -0.00000, -0.00000) (  0.00000,  0.00000)
   0  32  107414.8     93.1   0.000000000   0.00000 ( -0.00000, -0.00000) (  0.00000,  0.00000) (  0.00000,  0.00000)
   0  33  107415.7     93.1   0.000000000   0.00000 (  0.00000,  0.00000) ( -0.00000, -0.00000) (  0.00000,  0.00000)
   0  34  107698.9     92.9   0.001900488   0.00581 ( -0.00000,  0.00000) (  0.00335, -0.05427) ( -0.00329,  0.05331)
   0  35  107698.9     92.9   0.001900488   0.00581 (  0.00000, -0.00000) (  0.00329, -0.05331) (  0.00335, -0.05427)
   0  36  108079.5     92.5   0.000002029   0.00001 (  0.00248,  0.00015) ( -0.00000, -0.00000) ( -0.00000, -0.00000)
   0  37  108080.6     92.5   0.000000000   0.00000 (  0.00000,  0.00000) ( -0.00000, -0.00000) (  0.00000,  0.00000)
   0  38  109952.6     90.9   0.086167916   0.25800 ( -0.00000,  0.00000) ( -0.02212,  0.35883) ( -0.02207,  0.35813)
   0  39  109952.6     90.9   0.086167916   0.25800 (  0.00000, -0.00000) ( -0.02207,  0.35813) (  0.02212, -0.35883)
   0  40  114846.5     87.1   0.000000000   0.00000 (  0.00000,  0.00000) ( -0.00000, -0.00000) ( -0.00000, -0.00000)

FINAL SINGLE POINT ENERGY      -919.983839265841

DIPOLE MOMENT
-------------
                                X             Y             Z
Electronic contribution:      0.00000       0.00000       0.00000
Nuclear contribution   :      0.00000       0.00000      -0.00000
                        -----------------------------------------
Total Dipole Moment    :      0.00000       0.00000       0.00000
                        -----------------------------------------
Magnitude (a.u.)       :      0.00000
Magnitude (Debye)      :      0.00000

Rotational constants in cm-1:     0.000000     0.239418     0.239418
Rotational constants in MHz :     0.000000  7177.575593  7177.575593

                             ****ORCA TERMINATED NORMALLY****
TOTAL RUN TIME: 0 days 0 hours 0 minutes 17 seconds 126 msec
