                         Program Version 5.0.4 -  RELEASE  -
|  1> !PBE0 nososcf NoRI
|  2> %SCF Guess HCore
|  3>      DIISMaxIt -1
|  4> end
|  5> %TDDFT NROOTS 10
|  6>        DOSOC TRUE
|  7> end
|  8> %basis
|  9>         GTOName "../../../basis_orca"
| 10> end
| 11> * xyz 0 1
| 12>   O         4.1848989125        4.9161021558        3.8927781909
| 13>   C         4.0595592296        3.7121608804        3.9649318530
| 14>   H         3.8151628720        3.0887969911        3.0720953360
| 15>   H         4.1840364696        3.1621527283        4.9280594809
| 16> *
| 17>
| 18>                          ****END OF INPUT****

CARTESIAN COORDINATES (ANGSTROEM)
---------------------------------
  O      4.184899    4.916102    3.892778
  C      4.059559    3.712161    3.964932
  H      3.815163    3.088797    3.072095
  H      4.184036    3.162153    4.928059

 Total Charge           Charge          ....    0
 Multiplicity           Mult            ....    1
 Number of Electrons    NEL             ....   16
 Basis Dimension        Dim             ....   90

ORBITAL ENERGIES
----------------

  NO   OCC          E(Eh)            E(eV)
   0   2.0000     -19.226797      -523.1877
   1   2.0000     -10.328674      -281.0575
   2   2.0000      -1.089131       -29.6367
   3   2.0000      -0.656594       -17.8668
   4   2.0000      -0.512565       -13.9476
   5   2.0000      -0.471066       -12.8184
   6   2.0000      -0.417833       -11.3698
   7   2.0000      -0.287971        -7.8361
   8   0.0000      -0.049632        -1.3506
   9   0.0000       0.062806         1.7090
  10   0.0000       0.124644         3.3917
  11   0.0000       0.154644         4.2081
  12   0.0000       0.259981         7.0744

MULLIKEN ATOMIC CHARGES
-----------------------
   0 O :   -0.228046
   1 C :    0.164360
   2 H :    0.031848
   3 H :    0.031838
Sum of atomic charges:   -0.0000000

LOEWDIN ATOMIC CHARGES
----------------------
   0 O :    0.148157
   1 C :    0.038490
   2 H :   -0.093332
   3 H :   -0.093315

  Mayer bond orders larger than 0.100000
B(  0-O ,  1-C ) :   2.1323 B(  1-C ,  2-H ) :   0.9473 B(  1-C ,  3-H ) :   0.9473

---------------------------------------------------------------------------------------------------------------------
                    SOC CORRECTED ABSORPTION SPECTRUM VIA TRANSITION ELECTRIC DIPOLE MOMENTS*
---------------------------------------------------------------------------------------------------------------------
   State    Energy  Wavelength   fosc         T2              TX                    TY                    TZ
            (cm-1)    (nm)                  (au**2)          (au)                  (au)                  (au)
---------------------------------------------------------------------------------------------------------------------
   0   1   26023.1    384.3   0.000000003   0.00000 (  0.00001,  0.00004) (  0.00000,  0.00001) (  0.00007,  0.00018)
   0   2   26023.1    384.3   0.000000000   0.00000 ( -0.00002,  0.00006) (  0.00000, -0.00001) (  0.00000, -0.00001)
   0   3   26023.3    384.3   0.000000583   0.00001 (  0.00028, -0.00003) (  0.00269, -0.00024) ( -0.00016,  0.00001)
   0   4   32057.3    311.9   0.000000024   0.00000 ( -0.00017,  0.00007) ( -0.00002,  0.00001) ( -0.00043,  0.00018)
   0   5   45639.1    219.1   0.000000000   0.00000 ( -0.00000, -0.00000) ( -0.00000, -0.00000) ( -0.00000, -0.00001)
   0   6   45639.1    219.1   0.000000004   0.00000 ( -0.00015,  0.00006) (  0.00002, -0.00001) (  0.00003, -0.00001)
   0   7   45639.1    219.1   0.000000000   0.00000 ( -0.00000,  0.00000) ( -0.00000,  0.00000) ( -0.00000,  0.00000)
   0   8   60785.1    164.5   0.000000000   0.00000 (  0.00000, -0.00000) (  0.00000, -0.00000) ( -0.00000,  0.00000)
   0   9   60785.1    164.5   0.000000082   0.00000 (  0.00060, -0.00025) ( -0.00007,  0.00003) ( -0.00012,  0.00005)
   0  10   60785.2    164.5   0.000000005   0.00000 (  0.00002, -0.00000) (  0.00017, -0.00002) ( -0.00001,  0.00000)
   0  11   63372.4    157.8   0.000001824   0.00001 ( -0.00001, -0.00032) ( -0.00007, -0.00305) (  0.00000,  0.00019)
   0  12   63372.5    157.8   0.000000000   0.00000 ( -0.00000,  0.00000) (  0.00000, -0.00000) ( -0.00000,  0.00001)
   0  13   63372.5    157.8   0.000000000   0.00000 ( -0.00000,  0.00000) ( -0.00000,  0.00000) ( -0.00000,  0.00000)
   0  14   65579.6    152.5   0.103147871   0.51781 (  0.05320,  0.12968) (  0.01061,  0.02586) (  0.26769,  0.65247)
   0  15   73520.3    136.0   0.000672177   0.00301 (  0.05041, -0.01776) ( -0.00639,  0.00225) ( -0.00978,  0.00344)
   0  16   73645.1    135.8   0.000000000   0.00000 (  0.00000, -0.00000) (  0.00001, -0.00000) (  0.00000, -0.00000)
   0  17   73645.1    135.8   0.000000023   0.00000 (  0.00003,  0.00005) (  0.00001,  0.00001) (  0.00016,  0.00027)
   0  18   73645.1    135.8   0.000000037   0.00000 (  0.00036, -0.00016) ( -0.00005,  0.00002) ( -0.00008,  0.00003)
   0  19   74816.6    133.7   0.000005381   0.00002 ( -0.00051,  0.00004) ( -0.00481,  0.00042) (  0.00028, -0.00002)
   0  20   74816.8    133.7   0.000000023   0.00000 ( -0.00002, -0.00006) ( -0.00000, -0.00001) ( -0.00012, -0.00029)
   0  21   74817.0    133.7   0.000000111   0.00000 ( -0.00025, -0.00063) (  0.00003,  0.00008) (  0.00005,  0.00012)
   0  22   77657.0    128.8   0.001263402   0.00536 (  0.00619, -0.00188) (  0.06961, -0.02108) ( -0.00471,  0.00143)
   0  23   78206.0    127.9   0.000000000   0.00000 ( -0.00000,  0.00000) ( -0.00000,  0.00000) (  0.00000, -0.00000)
   0  24   78206.0    127.9   0.000000017   0.00000 ( -0.00003,  0.00000) ( -0.00027,  0.00003) (  0.00002, -0.00000)
   0  25   78206.0    127.9   0.000000035   0.00000 ( -0.00035,  0.00015) (  0.00004, -0.00002) (  0.00007, -0.00003)
   0  26   81561.5    122.6   0.000000635   0.00000 (  0.00017, -0.00007) (  0.00142, -0.00060) (  0.00036, -0.00015)
   0  27   81941.5    122.0   0.028855438   0.11593 ( -0.02517, -0.06163) ( -0.00509, -0.01246) ( -0.12615, -0.30887)
   0  28   86818.2    115.2   0.469094665   1.77879 (  0.13742, -0.00895) (  1.32135, -0.08603) ( -0.08022,  0.00522)
   0  29   90770.7    110.2   0.000000000   0.00000 (  0.00000, -0.00000) (  0.00000, -0.00000) (  0.00000, -0.00000)
   0  30   90770.7    110.2   0.000000776   0.00000 (  0.00029, -0.00015) (  0.00007, -0.00003) (  0.00146, -0.00075)
   0  31   90770.8    110.2   0.000004943   0.00002 (  0.00024, -0.00037) (  0.00227, -0.00354) ( -0.00014,  0.00022)
   0  32   92884.6    107.7   0.014311773   0.05073 ( -0.02665,  0.21811) (  0.00293, -0.02400) (  0.00523, -0.04278)
   0  33  102384.3     97.7   0.000000000   0.00000 ( -0.00000,  0.00000) (  0.00000, -0.00000) (  0.00000, -0.00000)
   0  34  102384.4     97.7   0.000000285   0.00000 ( -0.00007, -0.00017) ( -0.00001, -0.00004) ( -0.00036, -0.00087)
   0  35  102384.4     97.7   0.000000132   0.00000 (  0.00063, -0.00005) ( -0.00007,  0.00001) ( -0.00012,  0.00001)
   0  36  103303.6     96.8   0.000000059   0.00000 (  0.00005, -0.00001) (  0.00042, -0.00007) ( -0.00001,  0.00000)
   0  37  103303.6     96.8   0.000000638   0.00000 (  0.00011,  0.00026) (  0.00002,  0.00006) (  0.00053,  0.00129)
   0  38  103303.6     96.8   0.000000000   0.00000 (  0.00000, -0.00000) (  0.00000, -0.00000) ( -0.00000,  0.00000)
   0  39  104872.6     95.4   0.000000148   0.00000 (  0.00024, -0.00012) (  0.00047, -0.00024) (  0.00030, -0.00016)
   0  40  105633.1     94.7   0.000000028   0.00000 (  0.00002, -0.00001) ( -0.00005,  0.00003) ( -0.00025,  0.00014)

FINAL SINGLE POINT ENERGY      -114.297089913361

DIPOLE MOMENT
-------------
                                X             Y             Z
Electronic contribution:      0.13248       1.28798      -0.07728
Nuclear contribution   :     -0.22934      -2.22171       0.13312
                        -----------------------------------------
Total Dipole Moment    :     -0.09686      -0.93373       0.05584
                        -----------------------------------------
Magnitude (a.u.)       :      0.94040
Magnitude (Debye)      :      2.39031

Rotational constants in cm-1:     9.327160     1.278511     1.124387
Rotational constants in MHz : 279621.216857 38328.807105 33708.285389

                             ****ORCA TERMINATED NORMALLY****
TOTAL RUN TIME: 0 days 0 hours 0 minutes 45 seconds 832 msec
