                         Program Version 5.0.4 -  RELEASE  -
|  1> !PBE0 nososcf NoRI
|  2> %SCF Guess HCore
|  3>      DIISMaxIt -1
|  4> end
|  5> %TDDFT NROOTS 10
|  6>        DOSOC TRUE
|  7> end
|  8> %basis
|  9>         GTOName "../../../basis_orca"
| 10> end
| 11> * xyz 0 1
| 12>   H        11.1332257887        9.9999998549       10.5555477842
| 13>   H         8.8667742050        9.9999999017       10.5555479220
| 14>  Te         9.9999999260       10.0000002566        9.4121252570
| 15> *
| 16>
| 17>                          ****END OF INPUT****

CARTESIAN COORDINATES (ANGSTROEM)
---------------------------------
  H     11.133226   10.000000   10.555548
  H      8.866774   10.000000   10.555548
  Te    10.000000   10.000000    9.412125

 Total Charge           Charge          ....    0
 Multiplicity           Mult            ....    1
 Number of Electrons    NEL             ....   54
 Basis Dimension        Dim             ....  101

ORBITAL ENERGIES
----------------

  NO   OCC          E(Eh)            E(eV)
   0   2.0000   -1115.764430    -30361.4937
   1   2.0000    -168.906136     -4596.1696
   2   2.0000    -158.825884     -4321.8720
   3   2.0000    -158.825480     -4321.8610
   4   2.0000    -158.824691     -4321.8396
   5   2.0000     -34.698290      -944.1885
   6   2.0000     -30.369515      -826.3965
   7   2.0000     -30.368466      -826.3680
   8   2.0000     -30.366475      -826.3138
   9   2.0000     -22.414313      -609.9245
  10   2.0000     -22.414227      -609.9221
  11   2.0000     -22.412726      -609.8813
  12   2.0000     -22.411998      -609.8615
  13   2.0000     -22.411759      -609.8550
  14   2.0000      -6.272419      -170.6812
  15   2.0000      -4.745094      -129.1206
  16   2.0000      -4.741688      -129.0279
  17   2.0000      -4.734651      -128.8364
  18   2.0000      -1.579811       -42.9889
  19   2.0000      -1.572954       -42.8022
  20   2.0000      -1.563862       -42.5548
  21   2.0000      -1.561355       -42.4866
  22   2.0000      -1.560302       -42.4580
  23   2.0000      -0.665900       -18.1200
  24   2.0000      -0.417848       -11.3702
  25   2.0000      -0.357001        -9.7145
  26   2.0000      -0.252414        -6.8685
  27   0.0000      -0.024413        -0.6643
  28   0.0000       0.006565         0.1786
  29   0.0000       0.048394         1.3169
  30   0.0000       0.051756         1.4083
  31   0.0000       0.061015         1.6603

MULLIKEN ATOMIC CHARGES
-----------------------
   0 H :    0.017956
   1 H :    0.017956
   2 Te:   -0.035912
Sum of atomic charges:    0.0000000

LOEWDIN ATOMIC CHARGES
----------------------
   0 H :   -0.227528
   1 H :   -0.227528
   2 Te:    0.455057

  Mayer bond orders larger than 0.100000
B(  0-H ,  2-Te) :   0.9933 B(  1-H ,  2-Te) :   0.9933

---------------------------------------------------------------------------------------------------------------------
                    SOC CORRECTED ABSORPTION SPECTRUM VIA TRANSITION ELECTRIC DIPOLE MOMENTS*
---------------------------------------------------------------------------------------------------------------------
   State    Energy  Wavelength   fosc         T2              TX                    TY                    TZ
            (cm-1)    (nm)                  (au**2)          (au)                  (au)                  (au)
---------------------------------------------------------------------------------------------------------------------
   0   1   32859.5    304.3   0.000015950   0.00016 ( -0.00000, -0.00000) (  0.00935,  0.00850) (  0.00000,  0.00000)
   0   2   32883.9    304.1   0.000377124   0.00378 (  0.06088, -0.00828) ( -0.00000,  0.00000) (  0.00000, -0.00000)
   0   3   32959.8    303.4   0.000095194   0.00095 (  0.00000,  0.00000) ( -0.00000, -0.00000) (  0.03084,  0.00000)
   0   4   37529.7    266.5   0.000000000   0.00000 ( -0.00000,  0.00000) (  0.00000, -0.00000) ( -0.00000,  0.00000)
   0   5   41949.8    238.4   0.000000000   0.00000 ( -0.00000, -0.00000) ( -0.00000, -0.00000) (  0.00000,  0.00000)
   0   6   41957.9    238.3   0.000207639   0.00163 (  0.02632,  0.03060) ( -0.00000, -0.00000) (  0.00000,  0.00000)
   0   7   41973.9    238.2   0.001139894   0.00894 ( -0.00000, -0.00000) (  0.00000, -0.00000) ( -0.09455,  0.00000)
   0   8   46079.5    217.0   0.039568198   0.28269 (  0.00000,  0.00000) (  0.52388,  0.09080) (  0.00000,  0.00000)
   0   9   52000.3    192.3   0.000561506   0.00355 (  0.00000, -0.00000) (  0.04829, -0.03497) (  0.00000, -0.00000)
   0  10   52024.9    192.2   0.000000000   0.00000 (  0.00000,  0.00000) (  0.00000,  0.00000) (  0.00000, -0.00000)
   0  11   52104.7    191.9   0.000126988   0.00080 ( -0.00000, -0.00000) ( -0.00000, -0.00000) (  0.02833,  0.00000)
   0  12   55987.7    178.6   0.000495078   0.00291 (  0.00000,  0.00000) (  0.00000,  0.00000) ( -0.05395,  0.00000)
   0  13   56034.3    178.5   0.000026721   0.00016 (  0.01253,  0.00029) ( -0.00000, -0.00000) ( -0.00000, -0.00000)
   0  14   56038.1    178.4   0.000000000   0.00000 ( -0.00000, -0.00000) (  0.00000,  0.00000) (  0.00000, -0.00000)
   0  15   56702.8    176.4   0.000305002   0.00177 (  0.04204,  0.00193) ( -0.00000, -0.00000) (  0.00000,  0.00000)
   0  16   56785.9    176.1   0.000439045   0.00255 ( -0.00000,  0.00000) ( -0.00140,  0.05043) ( -0.00000,  0.00000)
   0  17   56804.4    176.0   0.000425314   0.00246 (  0.00000,  0.00000) ( -0.00000,  0.00000) (  0.04965, -0.00000)
   0  18   57133.2    175.0   0.000000000   0.00000 ( -0.00000, -0.00000) (  0.00000, -0.00000) (  0.00000, -0.00000)
   0  19   58093.8    172.1   0.000224615   0.00127 (  0.00656, -0.03507) ( -0.00000,  0.00000) ( -0.00000,  0.00000)
   0  20   58107.6    172.1   0.000000000   0.00000 (  0.00000, -0.00000) ( -0.00000,  0.00000) ( -0.00000, -0.00000)
   0  21   58164.6    171.9   0.000019057   0.00011 ( -0.00000,  0.00000) ( -0.00841,  0.00610) ( -0.00000,  0.00000)
   0  22   58275.2    171.6   0.000209899   0.00119 (  0.00000, -0.00000) ( -0.00000,  0.00000) ( -0.03444,  0.00000)
   0  23   58326.6    171.4   0.000583718   0.00329 (  0.00000, -0.00000) (  0.05690, -0.00752) ( -0.00000,  0.00000)
   0  24   58468.1    171.0   0.000069143   0.00039 ( -0.00022, -0.01973) (  0.00000,  0.00000) (  0.00000,  0.00000)
   0  25   58468.6    171.0   0.000000000   0.00000 (  0.00000,  0.00000) (  0.00000, -0.00000) (  0.00000,  0.00000)
   0  26   60094.2    166.4   0.000428625   0.00235 ( -0.00397, -0.04829) ( -0.00000, -0.00000) ( -0.00000, -0.00000)
   0  27   60107.3    166.4   0.003262756   0.01787 ( -0.00000, -0.00000) ( -0.08945, -0.09934) ( -0.00000, -0.00000)
   0  28   60131.3    166.3   0.000000000   0.00000 (  0.00000, -0.00000) ( -0.00000, -0.00000) ( -0.00000,  0.00000)
   0  29   61794.5    161.8   0.006215643   0.03311 ( -0.00000,  0.00000) ( -0.00000, -0.00000) ( -0.18197,  0.00000)
   0  30   66050.4    151.4   0.567187817   2.82701 (  0.00000, -0.00000) (  1.59049, -0.54529) (  0.00000, -0.00000)
   0  31   66871.8    149.5   0.072837358   0.35858 ( -0.59840, -0.02244) (  0.00000,  0.00000) ( -0.00000, -0.00000)
   0  32   67438.5    148.3   0.000000000   0.00000 ( -0.00000, -0.00000) (  0.00000,  0.00000) ( -0.00000,  0.00000)
   0  33   67440.6    148.3   0.000385400   0.00188 ( -0.00000,  0.00000) ( -0.01680,  0.03999) ( -0.00000,  0.00000)
   0  34   68398.7    146.2   0.119830606   0.57676 (  0.75937, -0.01089) ( -0.00000,  0.00000) (  0.00000, -0.00000)
   0  35   69903.5    143.1   0.161702245   0.76154 (  0.00000,  0.00000) (  0.00000,  0.00000) ( -0.87266, -0.00000)
   0  36   75268.5    132.9   0.000000000   0.00000 (  0.00000,  0.00000) (  0.00000,  0.00000) ( -0.00000, -0.00000)
   0  37   75285.1    132.8   0.000398256   0.00174 (  0.00000, -0.00000) (  0.04004, -0.01177) (  0.00000, -0.00000)
   0  38   75389.2    132.6   0.008704737   0.03801 (  0.00000,  0.00000) ( -0.00000, -0.00000) (  0.19497,  0.00000)
   0  39   80359.5    124.4   0.013894108   0.05692 ( -0.23681,  0.02902) (  0.00000, -0.00000) (  0.00000, -0.00000)
   0  40   81557.4    122.6   0.076179786   0.30750 ( -0.00000, -0.00000) (  0.00000,  0.00000) ( -0.55453, -0.00000)

FINAL SINGLE POINT ENERGY     -6594.174495332775

DIPOLE MOMENT
-------------
                                X             Y             Z
Electronic contribution:     -0.00000       0.00000      -2.13749
Nuclear contribution   :      0.00000      -0.00000       2.50670
                        -----------------------------------------
Total Dipole Moment    :      0.00000      -0.00000       0.36921
                        -----------------------------------------
Magnitude (a.u.)       :      0.36921
Magnitude (Debye)      :      0.93846

Rotational constants in cm-1:     6.511386     6.496819     3.252047
Rotational constants in MHz : 195206.455372 194769.736093 97493.925600

                             ****ORCA TERMINATED NORMALLY****
TOTAL RUN TIME: 0 days 0 hours 0 minutes 54 seconds 260 msec
