                         Program Version 5.0.4 -  RELEASE  -
|  1> !PBE0 nososcf NoRI
|  2> %SCF Guess HCore
|  3>      DIISMaxIt -1
|  4> end
|  5> %TDDFT NROOTS 10
|  6>        DOSOC TRUE
|  7> end
|  8> %basis
|  9>         GTOName "../../../basis_orca"
| 10> end
| 11> *xyz 0 1
| 12>  I         2.6728189984        4.0000000000        4.0000000001
| 13>   I         5.3271810016        4.0000000000        3.9999999999
| 14> *
| 15>
| 16>                          ****END OF INPUT****

CARTESIAN COORDINATES (ANGSTROEM)
---------------------------------
  I      2.672819    4.000000    4.000000
  I      5.327181    4.000000    4.000000

 Total Charge           Charge          ....    0
 Multiplicity           Mult            ....    1
 Number of Electrons    NEL             ....  106
 Basis Dimension        Dim             ....  146

ORBITAL ENERGIES
----------------

  NO   OCC          E(Eh)            E(eV)
   0   2.0000   -1161.184518    -31597.4371
   1   2.0000   -1161.184514    -31597.4370
   2   2.0000    -176.929721     -4814.5025
   3   2.0000    -176.929662     -4814.5009
   4   2.0000    -166.674120     -4535.4334
   5   2.0000    -166.674035     -4535.4311
   6   2.0000    -166.672373     -4535.3858
   7   2.0000    -166.672373     -4535.3858
   8   2.0000    -166.672360     -4535.3855
   9   2.0000    -166.672360     -4535.3855
  10   2.0000     -36.811272     -1001.6856
  11   2.0000     -36.810573     -1001.6666
  12   2.0000     -32.354525      -880.4114
  13   2.0000     -32.354415      -880.4084
  14   2.0000     -32.349863      -880.2845
  15   2.0000     -32.349862      -880.2845
  16   2.0000     -32.349844      -880.2840
  17   2.0000     -32.349844      -880.2840
  18   2.0000     -24.159645      -657.4174
  19   2.0000     -24.159547      -657.4147
  20   2.0000     -24.158476      -657.3855
  21   2.0000     -24.158476      -657.3855
  22   2.0000     -24.158383      -657.3830
  23   2.0000     -24.158383      -657.3830
  24   2.0000     -24.155171      -657.2956
  25   2.0000     -24.155170      -657.2956
  26   2.0000     -24.155153      -657.2951
  27   2.0000     -24.155152      -657.2951
  28   2.0000      -6.833676      -185.9538
  29   2.0000      -6.832865      -185.9317
  30   2.0000      -5.252469      -142.9269
  31   2.0000      -5.252396      -142.9250
  32   2.0000      -5.239007      -142.5606
  33   2.0000      -5.239007      -142.5606
  34   2.0000      -5.239005      -142.5606
  35   2.0000      -5.239005      -142.5606
  36   2.0000      -1.941137       -52.8210
  37   2.0000      -1.937477       -52.7214
  38   2.0000      -1.932787       -52.5938
  39   2.0000      -1.932787       -52.5938
  40   2.0000      -1.932078       -52.5745
  41   2.0000      -1.932078       -52.5745
  42   2.0000      -1.917464       -52.1768
  43   2.0000      -1.917458       -52.1767
  44   2.0000      -1.917434       -52.1760
  45   2.0000      -1.917428       -52.1759
  46   2.0000      -0.765718       -20.8362
  47   2.0000      -0.663610       -18.0577
  48   2.0000      -0.414671       -11.2838
  49   2.0000      -0.353261        -9.6127
  50   2.0000      -0.353261        -9.6127
  51   2.0000      -0.287698        -7.8287
  52   2.0000      -0.287698        -7.8287
  53   0.0000      -0.151381        -4.1193
  54   0.0000       0.041542         1.1304
  55   0.0000       0.044392         1.2080
  56   0.0000       0.060890         1.6569
  57   0.0000       0.060890         1.6569

MULLIKEN ATOMIC CHARGES
-----------------------
   0 I :    0.000001
   1 I :   -0.000001
Sum of atomic charges:    0.0000000

LOEWDIN ATOMIC CHARGES
----------------------
   0 I :    0.000000
   1 I :   -0.000000

  Mayer bond orders larger than 0.100000
B(  0-I ,  1-I ) :   1.0156

---------------------------------------------------------------------------------------------------------------------
                    SOC CORRECTED ABSORPTION SPECTRUM VIA TRANSITION ELECTRIC DIPOLE MOMENTS*
---------------------------------------------------------------------------------------------------------------------
   State    Energy  Wavelength   fosc         T2              TX                    TY                    TZ
            (cm-1)    (nm)                  (au**2)          (au)                  (au)                  (au)
---------------------------------------------------------------------------------------------------------------------
   0   1   11955.9    836.4   0.000000000   0.00000 (  0.00000, -0.00000) (  0.00000, -0.00000) ( -0.00000,  0.00000)
   0   2   11965.0    835.8   0.000000000   0.00000 ( -0.00000,  0.00000) ( -0.00000,  0.00000) (  0.00000, -0.00000)
   0   3   13413.8    745.5   0.000007703   0.00019 ( -0.00000, -0.00000) (  0.00086,  0.00000) (  0.01372,  0.00000)
   0   4   13413.9    745.5   0.000007703   0.00019 (  0.00000,  0.00000) (  0.01372,  0.00000) ( -0.00086, -0.00000)
   0   5   16211.7    616.8   0.000000000   0.00000 ( -0.00000,  0.00000) (  0.00000, -0.00000) (  0.00000, -0.00000)
   0   6   16467.8    607.2   0.014890300   0.29767 ( -0.00002,  0.54560) ( -0.00000,  0.00000) ( -0.00000,  0.00000)
   0   7   20635.8    484.6   0.000082755   0.00132 ( -0.00000, -0.00000) ( -0.03626, -0.00000) (  0.00228,  0.00000)
   0   8   20635.9    484.6   0.000082756   0.00132 (  0.00000,  0.00000) ( -0.00228, -0.00000) ( -0.03626, -0.00000)
   0   9   26250.4    380.9   0.000000000   0.00000 (  0.00000, -0.00000) (  0.00000, -0.00000) ( -0.00000,  0.00000)
   0  10   26250.4    380.9   0.000000000   0.00000 ( -0.00000,  0.00000) (  0.00000, -0.00000) (  0.00000, -0.00000)
   0  11   27626.7    362.0   0.000000000   0.00000 ( -0.00000, -0.00000) (  0.00000,  0.00000) ( -0.00000, -0.00000)
   0  12   27626.7    362.0   0.000000000   0.00000 ( -0.00000,  0.00000) ( -0.00000,  0.00000) (  0.00000, -0.00000)
   0  13   30408.8    328.9   0.000000000   0.00000 ( -0.00000, -0.00000) ( -0.00000, -0.00000) (  0.00000,  0.00000)
   0  14   31110.6    321.4   0.000000000   0.00000 (  0.00000, -0.00000) (  0.00000, -0.00000) ( -0.00000,  0.00000)
   0  15   34474.3    290.1   0.000000000   0.00000 (  0.00000,  0.00000) (  0.00000,  0.00000) ( -0.00000, -0.00000)
   0  16   34474.3    290.1   0.000000000   0.00000 (  0.00000,  0.00000) (  0.00000,  0.00000) ( -0.00000, -0.00000)
   0  17   38871.3    257.3   0.000000000   0.00000 ( -0.00000,  0.00000) (  0.00000, -0.00000) (  0.00000, -0.00000)
   0  18   38945.8    256.8   0.000130325   0.00110 (  0.00000,  0.00000) ( -0.03312, -0.00000) (  0.00220,  0.00000)
   0  19   38945.8    256.8   0.000130351   0.00110 ( -0.00000, -0.00000) ( -0.00220, -0.00000) ( -0.03312, -0.00000)
   0  20   59146.2    169.1   0.000000000   0.00000 ( -0.00000,  0.00000) ( -0.00000,  0.00000) ( -0.00000,  0.00000)
   0  21   59146.2    169.1   0.000000000   0.00000 (  0.00000, -0.00000) ( -0.00000,  0.00000) (  0.00000, -0.00000)
   0  22   59697.1    167.5   0.000000000   0.00000 ( -0.00000, -0.00000) ( -0.00000, -0.00000) ( -0.00000, -0.00000)
   0  23   59697.1    167.5   0.000000000   0.00000 ( -0.00000,  0.00000) ( -0.00000,  0.00000) ( -0.00000,  0.00000)
   0  24   62350.1    160.4   0.000000001   0.00000 ( -0.00000,  0.00008) ( -0.00000,  0.00000) (  0.00000, -0.00000)
   0  25   62359.6    160.4   0.000000000   0.00000 ( -0.00000,  0.00001) ( -0.00000,  0.00000) ( -0.00000,  0.00000)
   0  26   62828.7    159.2   0.045459141   0.23820 (  0.00000,  0.00000) ( -0.00662, -0.00000) ( -0.48801, -0.00002)
   0  27   62828.7    159.2   0.045461386   0.23821 ( -0.00000, -0.00000) (  0.48802,  0.00002) ( -0.00663, -0.00000)
   0  28   63179.6    158.3   1.452252386   7.56729 (  0.00399, -2.75087) (  0.00000, -0.00000) (  0.00000, -0.00000)
   0  29   63858.5    156.6   0.000000000   0.00000 (  0.00000,  0.00000) (  0.00000,  0.00000) ( -0.00000, -0.00000)
   0  30   63859.4    156.6   0.000000000   0.00000 ( -0.00000,  0.00000) (  0.00000, -0.00000) (  0.00000, -0.00000)
   0  31   64575.9    154.9   0.000000000   0.00000 (  0.00000,  0.00000) (  0.00000,  0.00000) ( -0.00000, -0.00000)
   0  32   64575.9    154.9   0.000000000   0.00000 (  0.00000, -0.00000) ( -0.00000,  0.00000) (  0.00000, -0.00000)
   0  33   66887.1    149.5   0.000000003   0.00000 (  0.00000, -0.00013) (  0.00000, -0.00000) (  0.00000, -0.00000)
   0  34   67066.9    149.1   0.003158081   0.01550 ( -0.01624, -0.12344) (  0.00000,  0.00000) (  0.00000,  0.00000)
   0  35   67324.1    148.5   0.000968867   0.00474 (  0.00000,  0.00000) (  0.00462,  0.00000) (  0.06868,  0.00000)
   0  36   67324.4    148.5   0.000865894   0.00423 ( -0.00000, -0.00000) (  0.06492,  0.00000) ( -0.00437, -0.00000)
   0  37   67488.8    148.2   0.000000002   0.00000 (  0.00000, -0.00011) (  0.00000, -0.00000) (  0.00000, -0.00000)
   0  38   67632.3    147.9   0.075891273   0.36941 (  0.00000,  0.00000) (  0.60644,  0.00004) ( -0.04058, -0.00000)
   0  39   67632.6    147.9   0.075790515   0.36892 (  0.00000,  0.00000) (  0.04055,  0.00000) (  0.60603,  0.00002)
   0  40   68683.4    145.6   0.000000001   0.00000 ( -0.00000,  0.00005) (  0.00000, -0.00000) ( -0.00000,  0.00000)

FINAL SINGLE POINT ENERGY    -13793.963801891834

DIPOLE MOMENT
-------------
                                X             Y             Z
Electronic contribution:     -0.00000      -0.00000      -0.00000
Nuclear contribution   :      0.00000       0.00000       0.00000
                        -----------------------------------------
Total Dipole Moment    :     -0.00000      -0.00000      -0.00000
                        -----------------------------------------
Magnitude (a.u.)       :      0.00000
Magnitude (Debye)      :      0.00000

Rotational constants in cm-1:     0.000000     0.037709     0.037709
Rotational constants in MHz :     0.000000  1130.487264  1130.487264

                             ****ORCA TERMINATED NORMALLY****
TOTAL RUN TIME: 0 days 0 hours 3 minutes 10 seconds 845 msec
