                         Program Version 5.0.4 -  RELEASE  -
|  1> !PBE0 nososcf NoRI
|  2> %SCF Guess HCore
|  3>      DIISMaxIt -1
|  4> end
|  5> %TDDFT NROOTS 10
|  6>        DOSOC TRUE
|  7> end
|  8> %basis
|  9>         GTOName "../../../basis_orca"
| 10> end
| 11> * xyz 0 1
| 12> Br         2.8790054817        3.9999999776        4.0000001317
| 13>  Br         5.1209945183        4.0000000224        3.9999998683
| 14> *
| 15>
| 16>                          ****END OF INPUT****

CARTESIAN COORDINATES (ANGSTROEM)
---------------------------------
  Br     2.879005    4.000000    4.000000
  Br     5.120995    4.000000    4.000000

 Total Charge           Charge          ....    0
 Multiplicity           Mult            ....    1
 Number of Electrons    NEL             ....   70
 Basis Dimension        Dim             ....  130

ORBITAL ENERGIES
----------------

  NO   OCC          E(Eh)            E(eV)
   0   2.0000    -482.654634    -13133.7003
   1   2.0000    -482.654624    -13133.7000
   2   2.0000     -62.578084     -1702.8362
   3   2.0000     -62.578073     -1702.8359
   4   2.0000     -56.383647     -1534.2770
   5   2.0000     -56.383642     -1534.2769
   6   2.0000     -56.378362     -1534.1332
   7   2.0000     -56.378362     -1534.1332
   8   2.0000     -56.378356     -1534.1331
   9   2.0000     -56.378356     -1534.1331
  10   2.0000      -8.809005      -239.7052
  11   2.0000      -8.808978      -239.7045
  12   2.0000      -6.621711      -180.1859
  13   2.0000      -6.621554      -180.1817
  14   2.0000      -6.603076      -179.6788
  15   2.0000      -6.603076      -179.6788
  16   2.0000      -6.603068      -179.6786
  17   2.0000      -6.603068      -179.6786
  18   2.0000      -2.729174       -74.2646
  19   2.0000      -2.726719       -74.1978
  20   2.0000      -2.722922       -74.0945
  21   2.0000      -2.722922       -74.0945
  22   2.0000      -2.722336       -74.0785
  23   2.0000      -2.722336       -74.0785
  24   2.0000      -2.707640       -73.6786
  25   2.0000      -2.707624       -73.6782
  26   2.0000      -2.707607       -73.6777
  27   2.0000      -2.707591       -73.6773
  28   2.0000      -0.902807       -24.5666
  29   2.0000      -0.754708       -20.5366
  30   2.0000      -0.450946       -12.2709
  31   2.0000      -0.389153       -10.5894
  32   2.0000      -0.389153       -10.5894
  33   2.0000      -0.299816        -8.1584
  34   2.0000      -0.299816        -8.1584
  35   0.0000      -0.129178        -3.5151
  36   0.0000       0.237598         6.4654
  37   0.0000       0.252169         6.8619
  38   0.0000       0.259341         7.0570
  39   0.0000       0.259341         7.0570

MULLIKEN ATOMIC CHARGES
-----------------------
   0 Br:    0.000000
   1 Br:   -0.000000
Sum of atomic charges:   -0.0000000

LOEWDIN ATOMIC CHARGES
----------------------
   0 Br:    0.000000
   1 Br:   -0.000000

  Mayer bond orders larger than 0.100000
B(  0-Br,  1-Br) :   0.8874

---------------------------------------------------------------------------------------------------------------------
                    SOC CORRECTED ABSORPTION SPECTRUM VIA TRANSITION ELECTRIC DIPOLE MOMENTS*
---------------------------------------------------------------------------------------------------------------------
   State    Energy  Wavelength   fosc         T2              TX                    TY                    TZ
            (cm-1)    (nm)                  (au**2)          (au)                  (au)                  (au)
---------------------------------------------------------------------------------------------------------------------
   0   1   16993.0    588.5   0.000000000   0.00000 ( -0.00000, -0.00000) (  0.00000,  0.00000) (  0.00000,  0.00000)
   0   2   17004.2    588.1   0.000000000   0.00000 (  0.00000,  0.00001) ( -0.00000, -0.00000) ( -0.00000, -0.00000)
   0   3   18116.0    552.0   0.000001961   0.00004 (  0.00000,  0.00000) ( -0.00370, -0.00002) (  0.00469,  0.00002)
   0   4   18116.0    552.0   0.000001962   0.00004 ( -0.00000, -0.00000) ( -0.00469, -0.00000) ( -0.00370, -0.00000)
   0   5   19792.2    505.3   0.000000000   0.00000 ( -0.00000,  0.00002) (  0.00000, -0.00000) ( -0.00000,  0.00000)
   0   6   19866.1    503.4   0.004553345   0.07546 ( -0.00395,  0.27466) ( -0.00000,  0.00000) (  0.00000, -0.00000)
   0   7   25311.1    395.1   0.000056680   0.00074 (  0.00000, -0.00000) (  0.02132, -0.00003) (  0.01681, -0.00002)
   0   8   25311.1    395.1   0.000056679   0.00074 ( -0.00000,  0.00000) (  0.01680, -0.00073) ( -0.02130,  0.00093)
   0   9   36662.2    272.8   0.000000000   0.00000 (  0.00000,  0.00000) ( -0.00000,  0.00000) (  0.00000, -0.00000)
   0  10   36662.2    272.8   0.000000000   0.00000 (  0.00000,  0.00000) ( -0.00000, -0.00000) ( -0.00000, -0.00000)
   0  11   37664.5    265.5   0.000000000   0.00000 ( -0.00000, -0.00000) (  0.00000,  0.00000) ( -0.00000, -0.00000)
   0  12   37664.5    265.5   0.000000000   0.00000 ( -0.00000, -0.00000) ( -0.00000, -0.00000) ( -0.00000, -0.00000)
   0  13   39172.5    255.3   0.000000000   0.00000 (  0.00000,  0.00000) (  0.00000,  0.00000) ( -0.00000, -0.00000)
   0  14   39373.7    254.0   0.000000000   0.00000 (  0.00000, -0.00000) ( -0.00000,  0.00000) ( -0.00000,  0.00000)
   0  15   44145.3    226.5   0.000000000   0.00000 (  0.00000,  0.00000) ( -0.00000, -0.00000) ( -0.00000, -0.00000)
   0  16   44145.3    226.5   0.000000000   0.00000 (  0.00000,  0.00000) ( -0.00000, -0.00000) (  0.00000,  0.00000)
   0  17   47298.5    211.4   0.000000000   0.00000 (  0.00000, -0.00000) ( -0.00000,  0.00000) (  0.00000, -0.00000)
   0  18   47319.9    211.3   0.000027162   0.00019 ( -0.00000,  0.00000) (  0.00791, -0.00316) ( -0.01002,  0.00400)
   0  19   47319.9    211.3   0.000027161   0.00019 (  0.00000, -0.00000) (  0.01079, -0.00012) (  0.00851, -0.00010)
   0  20   80694.6    123.9   2.119977762   8.64893 ( -2.83264, -0.79063) ( -0.00000, -0.00000) (  0.00000,  0.00000)
   0  21  102499.4     97.6   0.000000000   0.00000 (  0.00000,  0.00001) ( -0.00000, -0.00000) (  0.00000,  0.00000)
   0  22  102568.0     97.5   0.000000000   0.00000 (  0.00000, -0.00002) ( -0.00000,  0.00000) ( -0.00000,  0.00000)
   0  23  103010.9     97.1   0.016286116   0.05205 ( -0.00000, -0.00000) (  0.01150,  0.14085) ( -0.01457, -0.17851)
   0  24  103011.1     97.1   0.016290877   0.05206 ( -0.00000,  0.00000) ( -0.17841,  0.01605) ( -0.14077,  0.01266)
   0  25  104327.4     95.9   0.000000000   0.00000 (  0.00001,  0.00000) (  0.00000,  0.00000) ( -0.00000, -0.00000)
   0  26  105012.3     95.2   0.001000173   0.00314 (  0.00000,  0.00000) (  0.04326,  0.00778) (  0.03414,  0.00614)
   0  27  105012.6     95.2   0.001007164   0.00316 (  0.00000, -0.00000) ( -0.00930,  0.03355) (  0.01179, -0.04250)
   0  28  105492.3     94.8   0.000308065   0.00096 (  0.00077,  0.03100) ( -0.00000, -0.00000) ( -0.00000, -0.00000)
   0  29  105772.2     94.5   0.000000000   0.00000 ( -0.00000, -0.00000) (  0.00000,  0.00000) (  0.00000,  0.00000)
   0  30  105772.2     94.5   0.000000000   0.00000 (  0.00000,  0.00000) ( -0.00000, -0.00000) (  0.00000, -0.00000)
   0  31  105946.5     94.4   0.000000000   0.00000 ( -0.00000, -0.00001) (  0.00000,  0.00000) ( -0.00000, -0.00000)
   0  32  106204.3     94.2   0.000000000   0.00000 ( -0.00000, -0.00000) (  0.00000, -0.00000) ( -0.00000, -0.00000)
   0  33  106204.3     94.2   0.000000000   0.00000 ( -0.00000, -0.00000) (  0.00000,  0.00000) ( -0.00000, -0.00000)
   0  34  106783.7     93.6   0.065787334   0.20282 (  0.00000,  0.00000) ( -0.15554, -0.23159) (  0.19712,  0.29350)
   0  35  106783.8     93.6   0.065789639   0.20283 ( -0.00000, -0.00000) ( -0.35188, -0.03431) ( -0.27766, -0.02707)
   0  36  108692.8     92.0   0.000000000   0.00000 (  0.00000, -0.00000) ( -0.00000,  0.00000) (  0.00000, -0.00000)
   0  37  108717.8     92.0   0.000000000   0.00000 ( -0.00000, -0.00000) (  0.00000,  0.00000) (  0.00000,  0.00000)
   0  38  109310.2     91.5   0.000000000   0.00000 (  0.00000,  0.00000) (  0.00000,  0.00000) ( -0.00000, -0.00000)
   0  39  109310.2     91.5   0.000000000   0.00000 ( -0.00000, -0.00000) (  0.00000,  0.00000) (  0.00000,  0.00000)
   0  40  109829.6     91.1   0.000000000   0.00000 ( -0.00000, -0.00003) ( -0.00000, -0.00000) ( -0.00000, -0.00000)

FINAL SINGLE POINT ENERGY     -5145.310825019560

DIPOLE MOMENT
-------------
                                X             Y             Z
Electronic contribution:      0.00000       0.00000      -0.00000
Nuclear contribution   :     -0.00000      -0.00000      -0.00000
                        -----------------------------------------
Total Dipole Moment    :      0.00000       0.00000      -0.00000
                        -----------------------------------------
Magnitude (a.u.)       :      0.00000
Magnitude (Debye)      :      0.00000

Rotational constants in cm-1:     0.000000     0.083949     0.083949
Rotational constants in MHz :     0.000000  2516.713920  2516.713920

                             ****ORCA TERMINATED NORMALLY****
TOTAL RUN TIME: 0 days 0 hours 1 minutes 25 seconds 206 msec
