                         Program Version 5.0.4 -  RELEASE  -
|  1> !PBE0 nososcf NoRI
|  2> %SCF Guess HCore
|  3>      DIISMaxIt -1
|  4> end
|  5> %TDDFT NROOTS 10
|  6>        DOSOC TRUE
|  7> end
|  8> %basis
|  9>         GTOName "../../../basis_orca"
| 10> end
| 11> * xyz 0 1
| 12>   H         5.0501127267        4.0000000087        4.4485405158
| 13>   H         2.9498873254        4.0000000491        4.4485406930
| 14>   Se        3.9999999459        3.9999999428        3.4021117088
| 15> *
| 16>
| 17>                          ****END OF INPUT****

CARTESIAN COORDINATES (ANGSTROEM)
---------------------------------
  H      5.050113    4.000000    4.448541
  H      2.949887    4.000000    4.448541
  Se     4.000000    4.000000    3.402112

 Total Charge           Charge          ....    0
 Multiplicity           Mult            ....    1
 Number of Electrons    NEL             ....   36
 Basis Dimension        Dim             ....   93

ORBITAL ENERGIES
----------------

  NO   OCC          E(Eh)            E(eV)
   0   2.0000    -453.705481    -12345.9538
   1   2.0000     -58.109147     -1581.2303
   2   2.0000     -52.150535     -1419.0882
   3   2.0000     -52.149611     -1419.0630
   4   2.0000     -52.147388     -1419.0026
   5   2.0000      -7.883384      -214.5178
   6   2.0000      -5.807638      -158.0339
   7   2.0000      -5.804387      -157.9454
   8   2.0000      -5.796604      -157.7336
   9   2.0000      -2.152440       -58.5709
  10   2.0000      -2.151495       -58.5451
  11   2.0000      -2.144717       -58.3607
  12   2.0000      -2.142056       -58.2883
  13   2.0000      -2.140951       -58.2582
  14   2.0000      -0.730407       -19.8754
  15   2.0000      -0.428591       -11.6626
  16   2.0000      -0.368840       -10.0366
  17   2.0000      -0.260258        -7.0820
  18   0.0000       0.001406         0.0383
  19   0.0000       0.018129         0.4933
  20   0.0000       0.197380         5.3710
  21   0.0000       0.220518         6.0006
  22   0.0000       0.252600         6.8736

MULLIKEN ATOMIC CHARGES
-----------------------
   0 H :   -0.094423
   1 H :   -0.094423
   2 Se:    0.188845
Sum of atomic charges:    0.0000000

LOEWDIN ATOMIC CHARGES
----------------------
   0 H :   -0.257790
   1 H :   -0.257790
   2 Se:    0.515579

  Mayer bond orders larger than 0.100000
B(  0-H ,  2-Se) :   1.0343 B(  1-H ,  2-Se) :   1.0343

---------------------------------------------------------------------------------------------------------------------
                    SOC CORRECTED ABSORPTION SPECTRUM VIA TRANSITION ELECTRIC DIPOLE MOMENTS*
---------------------------------------------------------------------------------------------------------------------
   State    Energy  Wavelength   fosc         T2              TX                    TY                    TZ
            (cm-1)    (nm)                  (au**2)          (au)                  (au)                  (au)
---------------------------------------------------------------------------------------------------------------------
   0   1   38543.4    259.4   0.000000271   0.00000 ( -0.00000,  0.00000) (  0.00122, -0.00091) ( -0.00000,  0.00000)
   0   2   38545.4    259.4   0.000187189   0.00160 ( -0.03768, -0.01338) (  0.00000,  0.00000) (  0.00000,  0.00000)
   0   3   38560.2    259.3   0.000165418   0.00141 ( -0.00000,  0.00000) (  0.00000, -0.00000) (  0.03758,  0.00000)
   0   4   43045.3    232.3   0.000000000   0.00000 (  0.00000, -0.00000) (  0.00000, -0.00000) ( -0.00000,  0.00000)
   0   5   43930.7    227.6   0.000349685   0.00262 ( -0.05101, -0.00435) (  0.00000,  0.00000) (  0.00000,  0.00000)
   0   6   43944.4    227.6   0.000481816   0.00361 ( -0.00000, -0.00000) ( -0.00000,  0.00000) ( -0.06008,  0.00000)
   0   7   44030.4    227.1   0.000000000   0.00000 ( -0.00000, -0.00000) ( -0.00000, -0.00000) ( -0.00000,  0.00000)
   0   8   49396.0    202.4   0.009559414   0.06371 (  0.00000, -0.00000) (  0.01224, -0.25211) ( -0.00000,  0.00000)
   0   9   57867.9    172.8   0.000037823   0.00022 ( -0.00000,  0.00000) ( -0.00159,  0.01458) (  0.00000, -0.00000)
   0  10   57875.1    172.8   0.000000000   0.00000 ( -0.00000,  0.00000) ( -0.00000, -0.00000) ( -0.00000, -0.00000)
   0  11   57884.1    172.8   0.000000016   0.00000 (  0.00000, -0.00000) ( -0.00000, -0.00000) (  0.00030,  0.00000)
   0  12   63764.8    156.8   0.000000000   0.00000 ( -0.00000,  0.00000) ( -0.00000,  0.00000) ( -0.00000, -0.00000)
   0  13   63767.8    156.8   0.000046594   0.00024 (  0.01507,  0.00365) ( -0.00000, -0.00000) ( -0.00000, -0.00000)
   0  14   63770.8    156.8   0.000056218   0.00029 ( -0.00000,  0.00000) ( -0.00020,  0.01703) (  0.00000, -0.00000)
   0  15   72747.7    137.5   0.009033844   0.04088 ( -0.06546, -0.19130) (  0.00000,  0.00000) (  0.00000,  0.00000)
   0  16   72845.6    137.3   0.000000000   0.00000 (  0.00000, -0.00000) (  0.00000, -0.00000) ( -0.00000, -0.00000)
   0  17   72848.3    137.3   0.000013967   0.00006 (  0.00000,  0.00000) (  0.00004,  0.00794) ( -0.00000, -0.00000)
   0  18   74264.2    134.7   0.172677985   0.76548 (  0.00000,  0.00000) ( -0.00000, -0.00000) ( -0.87492, -0.00000)
   0  19   75304.2    132.8   0.128033534   0.55973 ( -0.73656,  0.13118) (  0.00000, -0.00000) ( -0.00000,  0.00000)
   0  20   78113.0    128.0   0.000000000   0.00000 ( -0.00000,  0.00000) ( -0.00000, -0.00000) (  0.00000, -0.00000)
   0  21   78115.9    128.0   0.000009496   0.00004 ( -0.00000, -0.00000) ( -0.00016, -0.00632) (  0.00000,  0.00000)
   0  22   78167.6    127.9   0.004399564   0.01853 (  0.00000, -0.00000) (  0.00000,  0.00000) (  0.13612,  0.00000)
   0  23   85659.1    116.7   0.000600277   0.00231 (  0.02743,  0.03943) ( -0.00000, -0.00000) ( -0.00000, -0.00000)
   0  24   85668.7    116.7   0.000000063   0.00000 ( -0.00000,  0.00000) (  0.00032, -0.00037) (  0.00000, -0.00000)
   0  25   85675.7    116.7   0.001114991   0.00428 ( -0.00000,  0.00000) ( -0.00000, -0.00000) ( -0.06546,  0.00000)
   0  26   86706.9    115.3   0.000000000   0.00000 ( -0.00000,  0.00000) (  0.00000,  0.00000) ( -0.00000,  0.00000)
   0  27   89639.5    111.6   0.004193742   0.01540 ( -0.12371,  0.00988) (  0.00000, -0.00000) (  0.00000, -0.00000)
   0  28   89651.1    111.5   0.000000000   0.00000 ( -0.00000,  0.00000) ( -0.00000, -0.00000) ( -0.00000,  0.00000)
   0  29   89662.1    111.5   0.002243706   0.00824 ( -0.00000,  0.00000) (  0.00000, -0.00000) (  0.09076,  0.00000)
   0  30   91083.8    109.8   0.846963532   3.06125 (  1.49345, -0.91151) ( -0.00000,  0.00000) ( -0.00000,  0.00000)
   0  31   91717.8    109.0   0.649136524   2.33001 (  0.00000, -0.00000) (  0.00000, -0.00000) (  1.52644, -0.00000)
   0  32   92222.9    108.4   0.005358997   0.01913 ( -0.00000, -0.00000) ( -0.00000, -0.13831) ( -0.00000, -0.00000)
   0  33   92503.4    108.1   0.000000000   0.00000 (  0.00000, -0.00000) ( -0.00000,  0.00000) ( -0.00000, -0.00000)
   0  34   92506.3    108.1   0.001115658   0.00397 (  0.05613,  0.02864) ( -0.00000, -0.00000) (  0.00000,  0.00000)
   0  35   92891.0    107.7   0.011094871   0.03932 (  0.00000, -0.00000) (  0.04566, -0.19297) ( -0.00000,  0.00000)
   0  36  101242.7     98.8   0.001890195   0.00615 ( -0.00000,  0.00000) ( -0.00000,  0.00000) ( -0.07840,  0.00000)
   0  37  101340.0     98.7   0.000000000   0.00000 ( -0.00000,  0.00000) ( -0.00000, -0.00000) ( -0.00000, -0.00000)
   0  38  101340.7     98.7   0.000156818   0.00051 (  0.01894,  0.01227) ( -0.00000, -0.00000) ( -0.00000, -0.00000)
   0  39  104273.7     95.9   0.046677942   0.14737 (  0.00000, -0.00000) (  0.00000, -0.00000) (  0.38389, -0.00000)
   0  40  107340.6     93.2   0.174365181   0.53478 ( -0.00000,  0.00000) ( -0.29201,  0.67045) (  0.00000, -0.00000)

FINAL SINGLE POINT ENERGY     -2401.301099120030

DIPOLE MOMENT
-------------
                                X             Y             Z
Electronic contribution:     -0.00000      -0.00000      -1.83197
Nuclear contribution   :      0.00000       0.00000       2.18260
                        -----------------------------------------
Total Dipole Moment    :      0.00000       0.00000       0.35062
                        -----------------------------------------
Magnitude (a.u.)       :      0.35062
Magnitude (Debye)      :      0.89121

Rotational constants in cm-1:     7.831340     7.582886     3.852556
Rotational constants in MHz : 234777.681424 227329.215887 115496.709823

                             ****ORCA TERMINATED NORMALLY****
TOTAL RUN TIME: 0 days 0 hours 0 minutes 29 seconds 307 msec
