                         Program Version 5.0.4 -  RELEASE  -
|  1> !PBE0 nososcf NoRI
|  2> %SCF Guess HCore
|  3>      DIISMaxIt -1
|  4> end
|  5> %TDDFT NROOTS 10
|  6>        DOSOC TRUE
|  7> end
|  8> %basis
|  9>         GTOName "../../../basis_orca"
| 10> end
| 11> * xyz 0 1
| 12> Br         3.2843776774        3.9999999804        4.0000000286
| 13>   H         4.7156222835        4.0000000195        3.9999999715
| 14> *
| 15>
| 16>                          ****END OF INPUT****

CARTESIAN COORDINATES (ANGSTROEM)
---------------------------------
  Br     3.284378    4.000000    4.000000
  H      4.715622    4.000000    4.000000

 Total Charge           Charge          ....    0
 Multiplicity           Mult            ....    1
 Number of Electrons    NEL             ....   36
 Basis Dimension        Dim             ....   79

ORBITAL ENERGIES
----------------

  NO   OCC          E(Eh)            E(eV)
   0   2.0000    -482.617557    -13132.6914
   1   2.0000     -62.541123     -1701.8305
   2   2.0000     -56.345353     -1533.2350
   3   2.0000     -56.342146     -1533.1477
   4   2.0000     -56.342146     -1533.1477
   5   2.0000      -8.771811      -238.6931
   6   2.0000      -6.579469      -179.0365
   7   2.0000      -6.568732      -178.7443
   8   2.0000      -6.568732      -178.7443
   9   2.0000      -2.687115       -73.1201
  10   2.0000      -2.683582       -73.0240
  11   2.0000      -2.683582       -73.0240
  12   2.0000      -2.674794       -72.7848
  13   2.0000      -2.674793       -72.7848
  14   2.0000      -0.813986       -22.1497
  15   2.0000      -0.457178       -12.4404
  16   2.0000      -0.320560        -8.7229
  17   2.0000      -0.320560        -8.7229
  18   0.0000      -0.007539        -0.2051
  19   0.0000       0.201786         5.4909
  20   0.0000       0.280167         7.6237
  21   0.0000       0.280167         7.6237
  22   0.0000       0.290962         7.9175

MULLIKEN ATOMIC CHARGES
-----------------------
   0 Br:    0.029771
   1 H :   -0.029771
Sum of atomic charges:   -0.0000000

LOEWDIN ATOMIC CHARGES
----------------------
   0 Br:    0.285439
   1 H :   -0.285439

  Mayer bond orders larger than 0.100000
B(  0-Br,  1-H ) :   1.1013

---------------------------------------------------------------------------------------------------------------------
                    SOC CORRECTED ABSORPTION SPECTRUM VIA TRANSITION ELECTRIC DIPOLE MOMENTS*
---------------------------------------------------------------------------------------------------------------------
   State    Energy  Wavelength   fosc         T2              TX                    TY                    TZ
            (cm-1)    (nm)                  (au**2)          (au)                  (au)                  (au)
---------------------------------------------------------------------------------------------------------------------
   0   1   48276.7    207.1   0.000000000   0.00000 (  0.00000,  0.00000) ( -0.00000, -0.00000) (  0.00000,  0.00000)
   0   2   48276.7    207.1   0.000000000   0.00000 (  0.00000, -0.00000) ( -0.00000,  0.00000) ( -0.00000, -0.00000)
   0   3   49276.9    202.9   0.000072171   0.00048 (  0.00000, -0.00000) ( -0.00009,  0.02195) ( -0.00000,  0.00055)
   0   4   49276.9    202.9   0.000072171   0.00048 (  0.00000, -0.00000) ( -0.00000,  0.00055) (  0.00000, -0.02195)
   0   5   50784.5    196.9   0.000000000   0.00000 ( -0.00000, -0.00000) (  0.00000, -0.00000) ( -0.00000,  0.00000)
   0   6   50901.4    196.5   0.002082805   0.01347 ( -0.11606,  0.00000) ( -0.00000,  0.00000) (  0.00000, -0.00000)
   0   7   55549.3    180.0   0.002047042   0.01213 ( -0.00000, -0.00000) (  0.00000,  0.00558) ( -0.00000, -0.11000)
   0   8   55549.3    180.0   0.002047042   0.01213 (  0.00000,  0.00000) (  0.00000, -0.11000) ( -0.00000, -0.00558)
   0   9   71528.2    139.8   0.000000000   0.00000 (  0.00000, -0.00000) (  0.00000,  0.00000) ( -0.00000,  0.00000)
   0  10   71547.4    139.8   0.000058785   0.00027 (  0.00000,  0.00000) ( -0.00000, -0.00247) (  0.00000,  0.01626)
   0  11   71547.4    139.8   0.000058785   0.00027 ( -0.00000, -0.00000) (  0.00000,  0.01626) (  0.00000,  0.00247)
   0  12   96741.8    103.4   0.000000000   0.00000 ( -0.00000, -0.00000) (  0.00000, -0.00000) (  0.00000,  0.00000)
   0  13   96741.8    103.4   0.000000000   0.00000 (  0.00000, -0.00000) ( -0.00000, -0.00000) (  0.00000, -0.00000)
   0  14   96895.1    103.2   0.829720246   2.81907 ( -1.67901, -0.00001) ( -0.00000, -0.00000) (  0.00000,  0.00000)
   0  15   97657.3    102.4   0.010097042   0.03404 (  0.00000,  0.00000) (  0.00001,  0.18435) (  0.00000,  0.00721)
   0  16   97657.3    102.4   0.010097042   0.03404 (  0.00000,  0.00000) ( -0.00000, -0.00721) (  0.00000,  0.18435)
   0  17   99358.4    100.6   0.000000000   0.00000 ( -0.00000, -0.00000) ( -0.00000,  0.00000) (  0.00000, -0.00000)
   0  18   99415.1    100.6   0.013863347   0.04591 (  0.21426, -0.00002) (  0.00000, -0.00000) ( -0.00000,  0.00000)
   0  19  102324.7     97.7   0.109956151   0.35376 (  0.00000,  0.00000) ( -0.00000, -0.00073) (  0.00000,  0.59478)
   0  20  102324.7     97.7   0.109956151   0.35376 ( -0.00000,  0.00000) (  0.00000, -0.59478) (  0.00000, -0.00073)
   0  21  108785.0     91.9   0.000000000   0.00000 ( -0.00000,  0.00000) ( -0.00000,  0.00000) (  0.00000, -0.00000)
   0  22  108824.2     91.9   0.000348550   0.00105 (  0.00000, -0.00000) ( -0.00000,  0.03152) (  0.00000,  0.00782)
   0  23  108824.2     91.9   0.000348550   0.00105 (  0.00000,  0.00000) (  0.00000, -0.00782) (  0.00000,  0.03152)
   0  24  111578.0     89.6   0.000000000   0.00000 ( -0.00000,  0.00000) (  0.00000, -0.00000) (  0.00000, -0.00000)
   0  25  111591.0     89.6   0.000000000   0.00000 (  0.00000, -0.00000) ( -0.00000,  0.00000) (  0.00000, -0.00000)
   0  26  112046.4     89.2   0.000000069   0.00000 (  0.00000,  0.00000) ( -0.00000,  0.00016) ( -0.00000,  0.00042)
   0  27  112046.4     89.2   0.000000069   0.00000 ( -0.00000,  0.00000) (  0.00000, -0.00042) (  0.00000,  0.00016)
   0  28  113142.5     88.4   0.000624627   0.00182 ( -0.00000, -0.00000) ( -0.00000,  0.02579) ( -0.00000, -0.03395)
   0  29  113142.5     88.4   0.000624627   0.00182 ( -0.00000, -0.00000) (  0.00000, -0.03395) ( -0.00000, -0.02579)
   0  30  114495.3     87.3   0.000000000   0.00000 (  0.00000,  0.00000) ( -0.00000,  0.00000) ( -0.00000,  0.00000)
   0  31  114497.6     87.3   0.000000000   0.00000 ( -0.00000, -0.00000) (  0.00000, -0.00000) ( -0.00000,  0.00000)
   0  32  115332.5     86.7   0.014247846   0.04067 ( -0.00000, -0.00000) (  0.00000,  0.20035) (  0.00000,  0.02300)
   0  33  115332.5     86.7   0.014247846   0.04067 (  0.00000,  0.00000) ( -0.00000, -0.02300) (  0.00000,  0.20035)
   0  34  116271.1     86.0   0.000000000   0.00000 ( -0.00000, -0.00000) (  0.00000, -0.00000) ( -0.00000,  0.00000)
   0  35  116935.3     85.5   0.000026627   0.00007 (  0.00866, -0.00000) ( -0.00000,  0.00000) ( -0.00000,  0.00000)
   0  36  117343.8     85.2   0.000000000   0.00000 (  0.00000, -0.00000) ( -0.00000,  0.00000) (  0.00000, -0.00000)
   0  37  117363.6     85.2   0.000000000   0.00000 ( -0.00000,  0.00000) (  0.00000, -0.00000) (  0.00000, -0.00000)
   0  38  117523.1     85.1   0.000000000   0.00000 (  0.00000, -0.00000) ( -0.00000,  0.00000) (  0.00000, -0.00000)
   0  39  119972.1     83.4   0.129217917   0.35458 ( -0.00000, -0.00000) (  0.00000,  0.02687) ( -0.00000, -0.59486)
   0  40  119972.1     83.4   0.129217918   0.35458 (  0.00000,  0.00000) ( -0.00001, -0.59486) ( -0.00000, -0.02687)

FINAL SINGLE POINT ENERGY     -2573.094042192299

DIPOLE MOMENT
-------------
                                X             Y             Z
Electronic contribution:     -1.07118      -0.00000       0.00000
Nuclear contribution   :      1.49159       0.00000      -0.00000
                        -----------------------------------------
Total Dipole Moment    :      0.42042       0.00000      -0.00000
                        -----------------------------------------
Magnitude (a.u.)       :      0.42042
Magnitude (Debye)      :      1.06862

Rotational constants in cm-1:     0.000000     8.267103     8.267103
Rotational constants in MHz :     0.000000 247841.501992 247841.501992

                             ****ORCA TERMINATED NORMALLY****
TOTAL RUN TIME: 0 days 0 hours 0 minutes 39 seconds 878 msec
