                         Program Version 5.0.4 -  RELEASE  -
|  1> !PBE0 nososcf NoRI
|  2> %SCF Guess HCore
|  3>      DIISMaxIt -1
|  4> end
|  5> %TDDFT NROOTS 10
|  6> 	DOSOC TRUE
|  7> end
|  8> %basis
|  9>         GTOName "../../../basis_orca"
| 10> end
| 11> * xyz 0 1
| 12>   Te  5.24152870664671      4.92538287485266      3.61866960852250
| 13>   C   3.92764012847789      3.58180082675130      4.00271049915706
| 14>   H   3.32513271233732      3.13421223862917      3.22264052949392
| 15>   H   3.74963704233808      3.23117899386687      5.01130420062652
| 16> *
| 17>
| 18>                          ****END OF INPUT****

CARTESIAN COORDINATES (ANGSTROEM)
---------------------------------
  Te     5.241529    4.925383    3.618670
  C      3.927640    3.581801    4.002710
  H      3.325133    3.134212    3.222641
  H      3.749637    3.231179    5.011304

 Total Charge           Charge          ....    0
 Multiplicity           Mult            ....    1
 Number of Electrons    NEL             ....   60
 Basis Dimension        Dim             ....  132

ORBITAL ENERGIES
----------------

  NO   OCC          E(Eh)            E(eV)
   0   2.0000   -1115.753285    -30361.1904
   1   2.0000    -168.895263     -4595.8738
   2   2.0000    -158.814948     -4321.5744
   3   2.0000    -158.814669     -4321.5669
   4   2.0000    -158.813634     -4321.5387
   5   2.0000     -34.687801      -943.9030
   6   2.0000     -30.359317      -826.1190
   7   2.0000     -30.358334      -826.0923
   8   2.0000     -30.355776      -826.0226
   9   2.0000     -22.404083      -609.6461
  10   2.0000     -22.403973      -609.6431
  11   2.0000     -22.402137      -609.5931
  12   2.0000     -22.401466      -609.5749
  13   2.0000     -22.401053      -609.5636
  14   2.0000     -10.303853      -280.3821
  15   2.0000      -6.262369      -170.4077
  16   2.0000      -4.734487      -128.8319
  17   2.0000      -4.732916      -128.7892
  18   2.0000      -4.724048      -128.5479
  19   2.0000      -1.568710       -42.6868
  20   2.0000      -1.563311       -42.5399
  21   2.0000      -1.552637       -42.2494
  22   2.0000      -1.552428       -42.2437
  23   2.0000      -1.549588       -42.1664
  24   2.0000      -0.757268       -20.6063
  25   2.0000      -0.583843       -15.8872
  26   2.0000      -0.477002       -12.9799
  27   2.0000      -0.376194       -10.2368
  28   2.0000      -0.302919        -8.2428
  29   2.0000      -0.231056        -6.2874
  30   0.0000      -0.117966        -3.2100
  31   0.0000       0.005814         0.1582
  32   0.0000       0.051250         1.3946
  33   0.0000       0.054285         1.4772
  34   0.0000       0.058046         1.5795

MULLIKEN ATOMIC CHARGES
-----------------------
   0 Te:   -0.018169
   1 C :   -0.149272
   2 H :    0.083703
   3 H :    0.083739
Sum of atomic charges:   -0.0000000

LOEWDIN ATOMIC CHARGES
----------------------
   0 Te:    0.351001
   1 C :   -0.145116
   2 H :   -0.102942
   3 H :   -0.102943

  Mayer bond orders larger than 0.100000
B(  0-Te,  1-C ) :   1.9974 B(  1-C ,  2-H ) :   1.0287 B(  1-C ,  3-H ) :   1.0289

---------------------------------------------------------------------------------------------------------------------
                    SOC CORRECTED ABSORPTION SPECTRUM VIA TRANSITION ELECTRIC DIPOLE MOMENTS*
---------------------------------------------------------------------------------------------------------------------
   State    Energy  Wavelength   fosc         T2              TX                    TY                    TZ
            (cm-1)    (nm)                  (au**2)          (au)                  (au)                  (au)
---------------------------------------------------------------------------------------------------------------------
   0   1    8714.5   1147.5   0.000013818   0.00052 (  0.00527,  0.00011) (  0.00120,  0.00003) (  0.02219,  0.00048)
   0   2    8719.8   1146.8   0.000018207   0.00069 (  0.00046, -0.01812) ( -0.00048,  0.01865) ( -0.00008,  0.00329)
   0   3    9149.5   1093.0   0.002855886   0.10276 (  0.21958, -0.00011) (  0.22455, -0.00011) ( -0.06419,  0.00003)
   0   4   12931.1    773.3   0.000000001   0.00000 (  0.00006,  0.00009) ( -0.00006, -0.00010) ( -0.00000, -0.00000)
   0   5   16997.3    588.3   0.000002804   0.00005 ( -0.00147, -0.00086) ( -0.00033, -0.00019) ( -0.00619, -0.00361)
   0   6   17020.2    587.5   0.000002586   0.00005 ( -0.00012,  0.00488) (  0.00012, -0.00503) (  0.00002, -0.00089)
   0   7   17177.2    582.2   0.000000000   0.00000 (  0.00001,  0.00002) ( -0.00002, -0.00003) (  0.00000,  0.00001)
   0   8   36637.3    272.9   0.006207040   0.05577 ( -0.16153,  0.00899) ( -0.16515,  0.00919) (  0.04727, -0.00263)
   0   9   36858.3    271.3   0.000641415   0.00573 ( -0.01680, -0.00474) ( -0.00385, -0.00108) ( -0.07078, -0.01996)
   0  10   36864.5    271.3   0.000000001   0.00000 (  0.00001,  0.00002) ( -0.00000, -0.00000) (  0.00004,  0.00007)
   0  11   37857.4    264.1   0.000000000   0.00000 (  0.00001,  0.00001) (  0.00000,  0.00001) (  0.00000,  0.00001)
   0  12   37868.1    264.1   0.000283734   0.00247 ( -0.03403,  0.00003) ( -0.03478,  0.00003) (  0.00996, -0.00001)
   0  13   37875.2    264.0   0.000031838   0.00028 (  0.00023, -0.01153) ( -0.00024,  0.01181) ( -0.00004,  0.00208)
   0  14   42589.7    234.8   0.008498481   0.06569 (  0.05448,  0.02350) (  0.01262,  0.00545) (  0.22859,  0.09863)
   0  15   44434.2    225.1   0.020386215   0.15104 (  0.00720, -0.26811) ( -0.00744,  0.27692) ( -0.00131,  0.04863)
   0  16   45768.8    218.5   0.246187562   1.77081 (  0.91172,  0.00029) (  0.93179,  0.00030) ( -0.26711, -0.00009)
   0  17   50154.0    199.4   0.000000010   0.00000 (  0.00000, -0.00013) ( -0.00000,  0.00022) ( -0.00000,  0.00002)
   0  18   50154.3    199.4   0.000192384   0.00126 ( -0.00108, -0.02450) (  0.00112,  0.02530) (  0.00020,  0.00446)
   0  19   50154.9    199.4   0.000009194   0.00006 ( -0.00539,  0.00025) ( -0.00534,  0.00024) (  0.00162, -0.00007)
   0  20   52172.7    191.7   0.169145163   1.06731 ( -0.23794,  0.02655) ( -0.05564,  0.00621) ( -0.99724,  0.11126)
   0  21   52541.7    190.3   0.000002357   0.00001 ( -0.00045, -0.00080) ( -0.00009, -0.00016) ( -0.00183, -0.00325)
   0  22   52584.8    190.2   0.005593932   0.03502 ( -0.03572, -0.02488) ( -0.00847, -0.00590) ( -0.14911, -0.10385)
   0  23   52625.9    190.0   0.003452062   0.02160 (  0.09701, -0.02669) (  0.09933, -0.02732) ( -0.02826,  0.00777)
   0  24   52683.4    189.8   0.000009162   0.00006 (  0.00013, -0.00689) (  0.00005, -0.00238) ( -0.00004,  0.00202)
   0  25   52687.0    189.8   0.000003578   0.00002 ( -0.00072, -0.00124) ( -0.00022, -0.00038) ( -0.00225, -0.00388)
   0  26   52691.7    189.8   0.000001580   0.00001 (  0.00058,  0.00099) (  0.00035,  0.00060) (  0.00143,  0.00245)
   0  27   54582.0    183.2   0.009795629   0.05908 (  0.16555,  0.00022) (  0.17039,  0.00023) ( -0.05142, -0.00007)
   0  28   54707.2    182.8   0.000111455   0.00067 ( -0.00047,  0.01790) (  0.00049, -0.01842) (  0.00008, -0.00320)
   0  29   54709.8    182.8   0.000001497   0.00001 ( -0.00067,  0.00024) ( -0.00008,  0.00003) ( -0.00275,  0.00096)
   0  30   55092.2    181.5   0.000068565   0.00041 ( -0.00790, -0.01177) ( -0.00740, -0.01102) (  0.00319,  0.00475)
   0  31   55144.8    181.3   0.017750213   0.10597 (  0.22102, -0.01142) (  0.22813, -0.01178) ( -0.06922,  0.00358)
   0  32   57761.4    173.1   0.060605832   0.34542 (  0.01068, -0.40643) ( -0.01098,  0.41785) ( -0.00193,  0.07351)
   0  33   57895.4    172.7   0.000002655   0.00002 ( -0.00106,  0.00045) ( -0.00008,  0.00004) ( -0.00342,  0.00145)
   0  34   57897.1    172.7   0.000068344   0.00039 ( -0.00037,  0.01358) (  0.00038, -0.01406) (  0.00007, -0.00244)
   0  35   57902.2    172.7   0.002392036   0.01360 ( -0.08009,  0.00063) ( -0.08144,  0.00064) (  0.02350, -0.00019)
   0  36   59555.7    167.9   0.000000001   0.00000 (  0.00004,  0.00006) ( -0.00001, -0.00002) (  0.00000,  0.00000)
   0  37   59571.5    167.9   0.000152373   0.00084 (  0.00025, -0.02005) ( -0.00025,  0.02066) ( -0.00005,  0.00367)
   0  38   59572.3    167.9   0.000014861   0.00008 (  0.00593, -0.00008) (  0.00659, -0.00008) ( -0.00186,  0.00002)
   0  39   62297.2    160.5   0.037209625   0.19664 ( -0.06498,  0.07885) ( -0.01473,  0.01787) ( -0.27402,  0.33252)
   0  40   63384.3    157.8   0.000000003   0.00000 ( -0.00004, -0.00007) ( -0.00002, -0.00004) (  0.00004,  0.00008)

FINAL SINGLE POINT ENERGY     -6632.315075413672

DIPOLE MOMENT
-------------
                                X             Y             Z
Electronic contribution:      5.49776       5.62206      -1.60727
Nuclear contribution   :     -5.95361      -6.08823       1.74062
                        -----------------------------------------
Total Dipole Moment    :     -0.45585      -0.46616       0.13335
                        -----------------------------------------
Magnitude (a.u.)       :      0.66550
Magnitude (Debye)      :      1.69156

Rotational constants in cm-1:     9.869713     0.329834     0.319168
Rotational constants in MHz : 295886.559456  9888.180496  9568.415320

                             ****ORCA TERMINATED NORMALLY****
TOTAL RUN TIME: 0 days 0 hours 1 minutes 15 seconds 63 msec
