                         Program Version 5.0.4 -  RELEASE  -
|  1> !PBE0 nososcf NoRI
|  2> %SCF Guess HCore
|  3>      DIISMaxIt -1
|  4> end
|  5> %TDDFT NROOTS 10
|  6>        DOSOC TRUE
|  7> end
|  8> %basis
|  9>         GTOName "../../../basis_orca"
| 10> end
| 11> * xyz 0 1
| 12>  Cl         3.3554191721        4.0000000216        4.0000000047
| 13>   H         4.6445807619        3.9999999784        3.9999999953
| 14> *
| 15>
| 16>                          ****END OF INPUT****

CARTESIAN COORDINATES (ANGSTROEM)
---------------------------------
  Cl     3.355419    4.000000    4.000000
  H      4.644581    4.000000    4.000000

 Total Charge           Charge          ....    0
 Multiplicity           Mult            ....    1
 Number of Electrons    NEL             ....   18
 Basis Dimension        Dim             ....   54

ORBITAL ENERGIES
----------------

  NO   OCC          E(Eh)            E(eV)
   0   2.0000    -101.709915     -2767.6675
   1   2.0000      -9.538747      -259.5625
   2   2.0000      -7.273738      -197.9285
   3   2.0000      -7.265325      -197.6995
   4   2.0000      -7.265325      -197.6995
   5   2.0000      -0.866438       -23.5770
   6   2.0000      -0.485220       -13.2035
   7   2.0000      -0.346839        -9.4380
   8   2.0000      -0.346839        -9.4380
   9   0.0000       0.012655         0.3444
  10   0.0000       0.201280         5.4771
  11   0.0000       0.296592         8.0707
  12   0.0000       0.302314         8.2264
  13   0.0000       0.302314         8.2264

MULLIKEN ATOMIC CHARGES
-----------------------
   0 Cl:   -0.180117
   1 H :    0.180117
Sum of atomic charges:    0.0000000

LOEWDIN ATOMIC CHARGES
----------------------
   0 Cl:    0.261793
   1 H :   -0.261793

  Mayer bond orders larger than 0.100000
B(  0-Cl,  1-H ) :   1.0493

---------------------------------------------------------------------------------------------------------------------
                    SOC CORRECTED ABSORPTION SPECTRUM VIA TRANSITION ELECTRIC DIPOLE MOMENTS*
---------------------------------------------------------------------------------------------------------------------
   State    Energy  Wavelength   fosc         T2              TX                    TY                    TZ
            (cm-1)    (nm)                  (au**2)          (au)                  (au)                  (au)
---------------------------------------------------------------------------------------------------------------------
   0   1   57609.5    173.6   0.000000173   0.00000 ( -0.00099, -0.00000) (  0.00000,  0.00000) (  0.00000, -0.00000)
   0   2   57609.5    173.6   0.000000349   0.00000 (  0.00141,  0.00000) ( -0.00000, -0.00000) (  0.00000,  0.00000)
   0   3   57887.5    172.7   0.000022239   0.00013 ( -0.00000, -0.00000) ( -0.00000, -0.00344) ( -0.00000, -0.01071)
   0   4   57887.5    172.7   0.000022230   0.00013 ( -0.00000,  0.00000) ( -0.00010,  0.01070) (  0.00003, -0.00344)
   0   5   58192.3    171.8   0.000000000   0.00000 (  0.00000,  0.00000) ( -0.00000,  0.00000) ( -0.00000,  0.00000)
   0   6   58197.2    171.8   0.000064136   0.00036 (  0.01905,  0.00000) ( -0.00000, -0.00000) ( -0.00000, -0.00000)
   0   7   64165.5    155.8   0.012025568   0.06170 ( -0.00000, -0.00000) ( -0.00000, -0.07507) ( -0.00000, -0.23678)
   0   8   64165.5    155.8   0.012025287   0.06170 ( -0.00000,  0.00000) ( -0.00068,  0.23677) (  0.00021, -0.07507)
   0   9   80930.4    123.6   0.000000000   0.00000 (  0.00000,  0.00000) (  0.00000,  0.00000) ( -0.00000, -0.00000)
   0  10   80931.3    123.6   0.000006773   0.00003 ( -0.00000,  0.00000) ( -0.00000,  0.00158) ( -0.00000,  0.00500)
   0  11   80931.3    123.6   0.000007037   0.00003 ( -0.00000, -0.00000) ( -0.00011, -0.00510) (  0.00004,  0.00161)
   0  12   99906.6    100.1   0.000000007   0.00000 ( -0.00015, -0.00000) ( -0.00000, -0.00000) (  0.00000, -0.00000)
   0  13   99906.6    100.1   0.000000014   0.00000 (  0.00022,  0.00000) ( -0.00000, -0.00000) ( -0.00000, -0.00000)
   0  14  100181.9     99.8   0.000241384   0.00079 (  0.00000, -0.00000) (  0.00000, -0.00850) (  0.00000, -0.02685)
   0  15  100181.9     99.8   0.000241348   0.00079 (  0.00000, -0.00000) (  0.00011, -0.02685) ( -0.00003,  0.00849)
   0  16  100484.3     99.5   0.001171110   0.00384 ( -0.06194, -0.00000) (  0.00000, -0.00000) (  0.00000,  0.00000)
   0  17  100487.9     99.5   0.000000000   0.00000 ( -0.00000, -0.00000) (  0.00000,  0.00000) (  0.00000, -0.00000)
   0  18  102233.0     97.8   0.478458240   1.54074 ( -1.24126, -0.00000) (  0.00000,  0.00000) (  0.00000, -0.00000)
   0  19  105766.8     94.5   0.091527287   0.28489 ( -0.00000,  0.00000) ( -0.00000,  0.16110) ( -0.00000,  0.50886)
   0  20  105766.9     94.5   0.091530636   0.28490 (  0.00000,  0.00000) (  0.00078,  0.50887) ( -0.00025, -0.16111)
   0  21  117414.9     85.2   0.000000000   0.00000 (  0.00000, -0.00000) (  0.00000, -0.00000) (  0.00000, -0.00000)
   0  22  117415.9     85.2   0.000002801   0.00001 (  0.00000, -0.00000) (  0.00000, -0.00085) (  0.00000, -0.00267)
   0  23  117418.7     85.2   0.000004084   0.00001 ( -0.00000,  0.00000) ( -0.00322,  0.00018) (  0.00102, -0.00006)
   0  24  120714.1     82.8   0.000000002   0.00000 ( -0.00000, -0.00000) ( -0.00000, -0.00002) ( -0.00000, -0.00007)
   0  25  120714.1     82.8   0.000000000   0.00000 (  0.00000,  0.00000) ( -0.00000, -0.00000) (  0.00000, -0.00000)
   0  26  120714.2     82.8   0.000000150   0.00000 (  0.00000,  0.00000) (  0.00060,  0.00011) ( -0.00019, -0.00004)
   0  27  121084.5     82.6   0.000000184   0.00000 (  0.00000, -0.00000) ( -0.00000, -0.00071) ( -0.00000, -0.00003)
   0  28  121084.5     82.6   0.000000483   0.00000 (  0.00000,  0.00000) ( -0.00109, -0.00000) ( -0.00035, -0.00000)
   0  29  121151.0     82.5   0.000000000   0.00000 ( -0.00002, -0.00000) ( -0.00000,  0.00000) (  0.00000,  0.00000)
   0  30  121178.6     82.5   0.000000000   0.00000 (  0.00003,  0.00000) (  0.00000,  0.00000) (  0.00000,  0.00000)
   0  31  121330.6     82.4   0.000016307   0.00004 (  0.00000,  0.00000) ( -0.00000,  0.00197) ( -0.00000,  0.00635)
   0  32  121356.5     82.4   0.000074433   0.00020 (  0.00000,  0.00000) (  0.01354,  0.00003) ( -0.00432, -0.00001)
   0  33  121858.8     82.1   0.000604387   0.00163 (  0.00000,  0.00000) ( -0.00000,  0.01220) ( -0.00000,  0.03852)
   0  34  121871.1     82.1   0.000000010   0.00000 (  0.00017,  0.00000) ( -0.00000,  0.00000) ( -0.00000,  0.00000)
   0  35  121871.7     82.1   0.000000024   0.00000 ( -0.00026, -0.00000) ( -0.00000,  0.00000) ( -0.00000,  0.00000)
   0  36  124872.1     80.1   0.055686787   0.14681 ( -0.00000, -0.00000) ( -0.33071, -0.15512) (  0.10472,  0.04912)
   0  37  124901.2     80.1   0.055146328   0.14535 ( -0.00000,  0.00000) ( -0.00000,  0.11509) ( -0.00000,  0.36347)
   0  38  125715.6     79.5   0.000000000   0.00000 (  0.00001, -0.00000) (  0.00000, -0.00000) (  0.00000, -0.00000)
   0  39  125742.6     79.5   0.000000000   0.00000 (  0.00001, -0.00000) (  0.00000, -0.00000) ( -0.00000, -0.00000)
   0  40  125863.7     79.5   0.000000000   0.00000 ( -0.00000, -0.00000) ( -0.00000, -0.00000) ( -0.00000, -0.00000)

FINAL SINGLE POINT ENERGY      -460.401126383711

DIPOLE MOMENT
-------------
                                X             Y             Z
Electronic contribution:     -0.73666       0.00000       0.00000
Nuclear contribution   :      1.22386      -0.00000      -0.00000
                        -----------------------------------------
Total Dipole Moment    :      0.48720      -0.00000      -0.00000
                        -----------------------------------------
Magnitude (a.u.)       :      0.48720
Magnitude (Debye)      :      1.23837

Rotational constants in cm-1:     0.000000    10.348973    10.348973
Rotational constants in MHz :     0.000000 310254.394864 310254.394864

                             ****ORCA TERMINATED NORMALLY****
TOTAL RUN TIME: 0 days 0 hours 0 minutes 5 seconds 68 msec
